/*--------------------------------*- C++ -*----------------------------------*\
  =========                 |
  \\      /  F ield         | OpenFOAM: The Open Source CFD Toolbox
   \\    /   O peration     | Website:  https://openfoam.org
    \\  /    A nd           | Version:  7
     \\/     M anipulation  |
\*---------------------------------------------------------------------------*/
FoamFile
{
    version     2.0;
    format      ascii;
    class       volSymmTensorField;
    location    "0.01";
    object      aSigma.particles-StressSubClosure;
}
// * * * * * * * * * * * * * * * * * * * * * * * * * * * * * * * * * * * * * //

dimensions      [0 2 -2 0 0 0 0];

internalField   nonuniform List<symmTensor> 
10790
(
(-0.00296431 0 0 0.00592862 0 -0.00296431)
(-0.00292139 0 0 0.00584278 0 -0.00292139)
(-0.00291946 0 0 0.00583891 0 -0.00291946)
(-0.00291818 0 0 0.00583636 0 -0.00291818)
(-0.00291738 0 0 0.00583477 0 -0.00291738)
(-0.00290467 0 0 0.00580935 0 -0.00290467)
(-0.00290047 0 0 0.00580094 0 -0.00290047)
(-0.00289885 0 0 0.0057977 0 -0.00289885)
(-0.00288057 0 0 0.00576115 0 -0.00288057)
(-0.00290349 0 0 0.00580698 0 -0.00290349)
(-0.00290212 0 0 0.00580425 0 -0.00290212)
(-0.00289618 0 0 0.00579236 0 -0.00289618)
(-0.00288283 0 0 0.00576566 0 -0.00288283)
(-0.00289705 0 0 0.00579411 0 -0.00289705)
(-0.00289582 0 0 0.00579164 0 -0.00289582)
(-0.0028872 0 0 0.00577441 0 -0.0028872)
(-0.00289661 0 0 0.00579321 0 -0.00289661)
(-0.00289399 0 0 0.00578798 0 -0.00289399)
(-0.00288825 0 0 0.00577649 0 -0.00288825)
(-0.00289427 0 0 0.00578854 0 -0.00289427)
(-0.00289433 0 0 0.00578866 0 -0.00289433)
(-0.00289985 0 0 0.00579971 0 -0.00289985)
(-0.0029068 0 0 0.00581361 0 -0.0029068)
(-0.00291133 0 0 0.00582265 0 -0.00291133)
(-0.00291823 0 0 0.00583645 0 -0.00291823)
(-0.00298073 0 0 0.00596146 0 -0.00298073)
(-9.10239e-07 0 0 1.82048e-06 0 -9.10239e-07)
(-2.23335e-06 0 0 4.46671e-06 0 -2.23335e-06)
(-2.1699e-06 0 0 4.3398e-06 0 -2.1699e-06)
(-2.45869e-06 0 0 4.91738e-06 0 -2.45869e-06)
(-2.39636e-06 0 0 4.79272e-06 0 -2.39636e-06)
(-2.157e-06 0 0 4.31399e-06 0 -2.157e-06)
(-2.31859e-06 0 0 4.63718e-06 0 -2.31859e-06)
(-2.39332e-06 0 0 4.78664e-06 0 -2.39332e-06)
(-2.96417e-06 0 0 5.92835e-06 0 -2.96417e-06)
(-2.4285e-06 0 0 4.857e-06 0 -2.4285e-06)
(-2.28197e-06 0 0 4.56395e-06 0 -2.28197e-06)
(-2.11705e-06 0 0 4.2341e-06 0 -2.11705e-06)
(-2.64066e-06 0 0 5.28132e-06 0 -2.64066e-06)
(-2.33749e-06 0 0 4.67499e-06 0 -2.33749e-06)
(-2.29393e-06 0 0 4.58786e-06 0 -2.29393e-06)
(-2.64571e-06 0 0 5.29142e-06 0 -2.64571e-06)
(-2.36043e-06 0 0 4.72086e-06 0 -2.36043e-06)
(-2.3491e-06 0 0 4.6982e-06 0 -2.3491e-06)
(-2.53881e-06 0 0 5.07761e-06 0 -2.53881e-06)
(-2.46981e-06 0 0 4.93962e-06 0 -2.46981e-06)
(-2.4437e-06 0 0 4.8874e-06 0 -2.4437e-06)
(-2.26027e-06 0 0 4.52053e-06 0 -2.26027e-06)
(-2.41379e-06 0 0 4.82757e-06 0 -2.41379e-06)
(-2.3494e-06 0 0 4.69879e-06 0 -2.3494e-06)
(-2.31723e-06 0 0 4.63446e-06 0 -2.31723e-06)
(-9.3698e-07 0 0 1.87396e-06 0 -9.3698e-07)
(-1.11428e-07 0 0 2.22856e-07 0 -1.11428e-07)
(-4.25436e-08 0 0 8.50873e-08 0 -4.25436e-08)
(-5.8257e-08 0 0 1.16514e-07 0 -5.8257e-08)
(-4.0727e-08 0 0 8.1454e-08 0 -4.0727e-08)
(-7.51016e-08 0 0 1.50203e-07 0 -7.51016e-08)
(-8.74257e-08 0 0 1.74851e-07 0 -8.74257e-08)
(-7.72556e-08 0 0 1.54511e-07 0 -7.72556e-08)
(-1.2269e-07 0 0 2.4538e-07 0 -1.2269e-07)
(-1.33879e-07 0 0 2.67758e-07 0 -1.33879e-07)
(-6.7945e-08 0 0 1.3589e-07 0 -6.7945e-08)
(-8.55218e-08 0 0 1.71044e-07 0 -8.55218e-08)
(-5.2853e-08 0 0 1.05706e-07 0 -5.2853e-08)
(-9.19756e-08 0 0 1.83951e-07 0 -9.19756e-08)
(-6.56317e-08 0 0 1.31263e-07 0 -6.56317e-08)
(-5.2815e-08 0 0 1.0563e-07 0 -5.2815e-08)
(-7.83603e-08 0 0 1.56721e-07 0 -7.83603e-08)
(-4.48483e-08 0 0 8.96967e-08 0 -4.48483e-08)
(-7.12142e-08 0 0 1.42428e-07 0 -7.12142e-08)
(-1.47e-07 0 0 2.94e-07 0 -1.47e-07)
(-7.21568e-08 0 0 1.44314e-07 0 -7.21568e-08)
(-7.04966e-08 0 0 1.40993e-07 0 -7.04966e-08)
(-7.89859e-08 0 0 1.57972e-07 0 -7.89859e-08)
(-9.37252e-08 0 0 1.8745e-07 0 -9.37252e-08)
(-5.72462e-08 0 0 1.14492e-07 0 -5.72462e-08)
(-5.44766e-08 0 0 1.08953e-07 0 -5.44766e-08)
(-7.14717e-08 0 0 1.42943e-07 0 -7.14717e-08)
(-1.1557e-08 0 0 2.31139e-08 0 -1.1557e-08)
(-1.89935e-08 0 0 3.7987e-08 0 -1.89935e-08)
(-1.03487e-08 0 0 2.06974e-08 0 -1.03487e-08)
(-6.80529e-09 0 0 1.36106e-08 0 -6.80529e-09)
(-6.6323e-09 0 0 1.32646e-08 0 -6.6323e-09)
(-6.87678e-09 0 0 1.37536e-08 0 -6.87678e-09)
(-1.65832e-08 0 0 3.31664e-08 0 -1.65832e-08)
(-7.50616e-09 0 0 1.50123e-08 0 -7.50616e-09)
(-9.09372e-09 0 0 1.81874e-08 0 -9.09372e-09)
(-1.30163e-08 0 0 2.60326e-08 0 -1.30163e-08)
(-1.50028e-08 0 0 3.00056e-08 0 -1.50028e-08)
(-4.09297e-09 0 0 8.18595e-09 0 -4.09297e-09)
(-6.55927e-09 0 0 1.31185e-08 0 -6.55927e-09)
(-1.15744e-08 0 0 2.31488e-08 0 -1.15744e-08)
(-4.88142e-09 0 0 9.76284e-09 0 -4.88142e-09)
(-5.25274e-09 0 0 1.05055e-08 0 -5.25274e-09)
(-5.83201e-09 0 0 1.1664e-08 0 -5.83201e-09)
(-2.27416e-08 0 0 4.54832e-08 0 -2.27416e-08)
(-3.8842e-09 0 0 7.7684e-09 0 -3.8842e-09)
(-2.13492e-08 0 0 4.26984e-08 0 -2.13492e-08)
(-7.53739e-09 0 0 1.50748e-08 0 -7.53739e-09)
(-2.68671e-08 0 0 5.37342e-08 0 -2.68671e-08)
(-5.51255e-09 0 0 1.10251e-08 0 -5.51255e-09)
(-6.19006e-09 0 0 1.23801e-08 0 -6.19006e-09)
(-7.85449e-09 0 0 1.5709e-08 0 -7.85449e-09)
(-1.11331e-08 0 0 2.22663e-08 0 -1.11331e-08)
(-1.16392e-08 0 0 2.32784e-08 0 -1.16392e-08)
(-1.61381e-08 0 0 3.22761e-08 0 -1.61381e-08)
(-6.44676e-09 0 0 1.28935e-08 0 -6.44676e-09)
(-1.43357e-08 0 0 2.86714e-08 0 -1.43357e-08)
(-3.89126e-09 0 0 7.78252e-09 0 -3.89126e-09)
(-2.84669e-08 0 0 5.69338e-08 0 -2.84669e-08)
(-3.9667e-09 0 0 7.9334e-09 0 -3.9667e-09)
(-2.01068e-08 0 0 4.02137e-08 0 -2.01068e-08)
(-1.27649e-08 0 0 2.55299e-08 0 -1.27649e-08)
(-9.49711e-09 0 0 1.89942e-08 0 -9.49711e-09)
(-3.21123e-08 0 0 6.42246e-08 0 -3.21123e-08)
(-4.21035e-09 0 0 8.4207e-09 0 -4.21035e-09)
(-3.29217e-09 0 0 6.58433e-09 0 -3.29217e-09)
(-4.95967e-09 0 0 9.91935e-09 0 -4.95967e-09)
(-6.42e-09 0 0 1.284e-08 0 -6.42e-09)
(-3.37917e-09 0 0 6.75833e-09 0 -3.37917e-09)
(-6.94863e-09 0 0 1.38973e-08 0 -6.94863e-09)
(-1.01927e-08 0 0 2.03854e-08 0 -1.01927e-08)
(-2.43596e-08 0 0 4.87193e-08 0 -2.43596e-08)
(-1.44868e-08 0 0 2.89735e-08 0 -1.44868e-08)
(-4.97317e-09 0 0 9.94633e-09 0 -4.97317e-09)
(-1.58357e-08 0 0 3.16713e-08 0 -1.58357e-08)
(-5.31487e-08 0 0 1.06297e-07 0 -5.31487e-08)
(-4.73445e-09 0 0 9.4689e-09 0 -4.73445e-09)
(-7.42762e-09 0 0 1.48552e-08 0 -7.42762e-09)
(-1.26337e-08 0 0 2.52674e-08 0 -1.26337e-08)
(-4.81862e-08 0 0 9.63724e-08 0 -4.81862e-08)
(-5.03004e-09 0 0 1.00601e-08 0 -5.03004e-09)
(-5.05857e-09 0 0 1.01171e-08 0 -5.05857e-09)
(-6.29488e-09 0 0 1.25898e-08 0 -6.29488e-09)
(-3.67084e-08 0 0 7.34167e-08 0 -3.67084e-08)
(-1.33055e-08 0 0 2.6611e-08 0 -1.33055e-08)
(-1.02801e-08 0 0 2.05601e-08 0 -1.02801e-08)
(-8.12193e-09 0 0 1.62439e-08 0 -8.12193e-09)
(-8.39531e-09 0 0 1.67906e-08 0 -8.39531e-09)
(-2.96983e-08 0 0 5.93965e-08 0 -2.96983e-08)
(-8.64413e-09 0 0 1.72883e-08 0 -8.64413e-09)
(-2.05378e-08 0 0 4.10756e-08 0 -2.05378e-08)
(-7.85836e-09 0 0 1.57167e-08 0 -7.85836e-09)
(-4.19249e-09 0 0 8.38497e-09 0 -4.19249e-09)
(-7.35094e-09 0 0 1.47019e-08 0 -7.35094e-09)
(-1.48916e-08 0 0 2.97832e-08 0 -1.48916e-08)
(-5.1958e-09 0 0 1.03916e-08 0 -5.1958e-09)
(-5.07254e-09 0 0 1.01451e-08 0 -5.07254e-09)
(-1.85877e-08 0 0 3.71755e-08 0 -1.85877e-08)
(-1.6685e-08 0 0 3.337e-08 0 -1.6685e-08)
(-1.68618e-08 0 0 3.37237e-08 0 -1.68618e-08)
(-2.41416e-08 0 0 4.82832e-08 0 -2.41416e-08)
(-1.92676e-08 0 0 3.85351e-08 0 -1.92676e-08)
(-1.30801e-08 0 0 2.61602e-08 0 -1.30801e-08)
(-9.80738e-09 0 0 1.96148e-08 0 -9.80738e-09)
(-1.7106e-08 0 0 3.42119e-08 0 -1.7106e-08)
(-3.06366e-08 0 0 6.12732e-08 0 -3.06366e-08)
(-3.02447e-08 0 0 6.04893e-08 0 -3.02447e-08)
(-9.03278e-09 0 0 1.80656e-08 0 -9.03278e-09)
(-8.9828e-09 0 0 1.79656e-08 0 -8.9828e-09)
(-1.17568e-08 0 0 2.35135e-08 0 -1.17568e-08)
(-2.20328e-08 0 0 4.40657e-08 0 -2.20328e-08)
(-6.66516e-09 0 0 1.33303e-08 0 -6.66516e-09)
(-5.04846e-09 0 0 1.00969e-08 0 -5.04846e-09)
(-8.19085e-09 0 0 1.63817e-08 0 -8.19085e-09)
(-1.81931e-08 0 0 3.63862e-08 0 -1.81931e-08)
(-1.67493e-08 0 0 3.34986e-08 0 -1.67493e-08)
(-5.193e-09 0 0 1.0386e-08 0 -5.193e-09)
(-5.53442e-09 0 0 1.10688e-08 0 -5.53442e-09)
(-1.25396e-08 0 0 2.50792e-08 0 -1.25396e-08)
(-9.681e-09 0 0 1.9362e-08 0 -9.681e-09)
(-4.87758e-09 0 0 9.75516e-09 0 -4.87758e-09)
(-1.50059e-08 0 0 3.00117e-08 0 -1.50059e-08)
(-6.7969e-09 0 0 1.35938e-08 0 -6.7969e-09)
(-5.24112e-09 0 0 1.04822e-08 0 -5.24112e-09)
(-9.46322e-09 0 0 1.89264e-08 0 -9.46322e-09)
(-8.61633e-09 0 0 1.72327e-08 0 -8.61633e-09)
(-4.40768e-09 0 0 8.81536e-09 0 -4.40768e-09)
(-4.71526e-09 0 0 9.43052e-09 0 -4.71526e-09)
(-1.5097e-08 0 0 3.0194e-08 0 -1.5097e-08)
(-1.00289e-08 0 0 2.00579e-08 0 -1.00289e-08)
(-1.1446e-08 0 0 2.28919e-08 0 -1.1446e-08)
(-8.99917e-09 0 0 1.79983e-08 0 -8.99917e-09)
(-7.97798e-09 0 0 1.5956e-08 0 -7.97798e-09)
(-7.40422e-09 0 0 1.48084e-08 0 -7.40422e-09)
(-3.92617e-09 0 0 7.85233e-09 0 -3.92617e-09)
(-1.6153e-08 0 0 3.23061e-08 0 -1.6153e-08)
(-7.86201e-09 0 0 1.5724e-08 0 -7.86201e-09)
(-6.52334e-09 0 0 1.30467e-08 0 -6.52334e-09)
(-1.46732e-08 0 0 2.93463e-08 0 -1.46732e-08)
(-1.90718e-08 0 0 3.81435e-08 0 -1.90718e-08)
(-9.48709e-09 0 0 1.89742e-08 0 -9.48709e-09)
(-1.03499e-08 0 0 2.06999e-08 0 -1.03499e-08)
(-2.16472e-09 0 0 4.32945e-09 0 -2.16472e-09)
(-3.64135e-09 0 0 7.2827e-09 0 -3.64135e-09)
(-7.21987e-09 0 0 1.44397e-08 0 -7.21987e-09)
(-3.54759e-09 0 0 7.09518e-09 0 -3.54759e-09)
(-1.23084e-08 0 0 2.46168e-08 0 -1.23084e-08)
(-1.15061e-08 0 0 2.30122e-08 0 -1.15061e-08)
(-7.79401e-09 0 0 1.5588e-08 0 -7.79401e-09)
(-2.39075e-08 0 0 4.7815e-08 0 -2.39075e-08)
(-5.82559e-09 0 0 1.16512e-08 0 -5.82559e-09)
(-2.29981e-08 0 0 4.59962e-08 0 -2.29981e-08)
(-9.54434e-09 0 0 1.90887e-08 0 -9.54434e-09)
(-1.28285e-08 0 0 2.5657e-08 0 -1.28285e-08)
(-5.24797e-09 0 0 1.04959e-08 0 -5.24797e-09)
(-4.97349e-09 0 0 9.94698e-09 0 -4.97349e-09)
(-5.41322e-09 0 0 1.08264e-08 0 -5.41322e-09)
(-2.09375e-08 0 0 4.18751e-08 0 -2.09375e-08)
(-1.15202e-08 0 0 2.30405e-08 0 -1.15202e-08)
(-1.05407e-08 0 0 2.10814e-08 0 -1.05407e-08)
(-1.62708e-08 0 0 3.25416e-08 0 -1.62708e-08)
(-6.70356e-09 0 0 1.34071e-08 0 -6.70356e-09)
(-1.91288e-08 0 0 3.82577e-08 0 -1.91288e-08)
(-2.54744e-08 0 0 5.09488e-08 0 -2.54744e-08)
(-6.16917e-09 0 0 1.23383e-08 0 -6.16917e-09)
(-6.25871e-09 0 0 1.25174e-08 0 -6.25871e-09)
(-2.05011e-08 0 0 4.10021e-08 0 -2.05011e-08)
(-1.1999e-08 0 0 2.3998e-08 0 -1.1999e-08)
(-5.34777e-09 0 0 1.06955e-08 0 -5.34777e-09)
(-8.03448e-09 0 0 1.6069e-08 0 -8.03448e-09)
(-1.33634e-08 0 0 2.67268e-08 0 -1.33634e-08)
(-2.35845e-08 0 0 4.71691e-08 0 -2.35845e-08)
(-1.25219e-08 0 0 2.50439e-08 0 -1.25219e-08)
(-7.85116e-09 0 0 1.57023e-08 0 -7.85116e-09)
(-6.20972e-09 0 0 1.24194e-08 0 -6.20972e-09)
(-4.27443e-09 0 0 8.54886e-09 0 -4.27443e-09)
(-5.01895e-08 0 0 1.00379e-07 0 -5.01895e-08)
(-5.14513e-09 0 0 1.02903e-08 0 -5.14513e-09)
(-1.67445e-08 0 0 3.34889e-08 0 -1.67445e-08)
(-1.26791e-08 0 0 2.53582e-08 0 -1.26791e-08)
(-6.38297e-09 0 0 1.27659e-08 0 -6.38297e-09)
(-5.94944e-09 0 0 1.18989e-08 0 -5.94944e-09)
(-5.61556e-09 0 0 1.12311e-08 0 -5.61556e-09)
(-2.41311e-08 0 0 4.82622e-08 0 -2.41311e-08)
(-1.73421e-08 0 0 3.46842e-08 0 -1.73421e-08)
(-1.94323e-08 0 0 3.88646e-08 0 -1.94323e-08)
(-6.77061e-09 0 0 1.35412e-08 0 -6.77061e-09)
(-9.85974e-09 0 0 1.97195e-08 0 -9.85974e-09)
(-5.76085e-09 0 0 1.15217e-08 0 -5.76085e-09)
(-1.09095e-08 0 0 2.18189e-08 0 -1.09095e-08)
(-2.54827e-08 0 0 5.09654e-08 0 -2.54827e-08)
(-5.25759e-09 0 0 1.05152e-08 0 -5.25759e-09)
(-4.67934e-08 0 0 9.35867e-08 0 -4.67934e-08)
(-4.2601e-08 0 0 8.5202e-08 0 -4.2601e-08)
(-3.49114e-08 0 0 6.98227e-08 0 -3.49114e-08)
(-2.04582e-08 0 0 4.09164e-08 0 -2.04582e-08)
(-9.89951e-09 0 0 1.9799e-08 0 -9.89951e-09)
(-6.94092e-09 0 0 1.38818e-08 0 -6.94092e-09)
(-2.53221e-08 0 0 5.06441e-08 0 -2.53221e-08)
(-3.32401e-08 0 0 6.64801e-08 0 -3.32401e-08)
(-8.83381e-09 0 0 1.76676e-08 0 -8.83381e-09)
(-1.73693e-08 0 0 3.47386e-08 0 -1.73693e-08)
(-1.11693e-08 0 0 2.23385e-08 0 -1.11693e-08)
(-1.48504e-08 0 0 2.97007e-08 0 -1.48504e-08)
(-3.50635e-09 0 0 7.01271e-09 0 -3.50635e-09)
(-2.15421e-08 0 0 4.30842e-08 0 -2.15421e-08)
(-1.61526e-08 0 0 3.23052e-08 0 -1.61526e-08)
(-3.45529e-09 0 0 6.91058e-09 0 -3.45529e-09)
(-4.91393e-09 0 0 9.82785e-09 0 -4.91393e-09)
(-1.43501e-08 0 0 2.87001e-08 0 -1.43501e-08)
(-3.81231e-09 0 0 7.62461e-09 0 -3.81231e-09)
(-1.47205e-08 0 0 2.94409e-08 0 -1.47205e-08)
(-4.63601e-09 0 0 9.27201e-09 0 -4.63601e-09)
(-5.97817e-09 0 0 1.19563e-08 0 -5.97817e-09)
(-5.73746e-09 0 0 1.14749e-08 0 -5.73746e-09)
(-5.90527e-09 0 0 1.18105e-08 0 -5.90527e-09)
(-1.3942e-08 0 0 2.7884e-08 0 -1.3942e-08)
(-2.61595e-09 0 0 5.23189e-09 0 -2.61595e-09)
(-1.36306e-08 0 0 2.72612e-08 0 -1.36306e-08)
(-2.61615e-09 0 0 5.23231e-09 0 -2.61615e-09)
(-3.55654e-09 0 0 7.11308e-09 0 -3.55654e-09)
(-2.18204e-08 0 0 4.36408e-08 0 -2.18204e-08)
(-2.43015e-08 0 0 4.86031e-08 0 -2.43015e-08)
(-2.43633e-08 0 0 4.87265e-08 0 -2.43633e-08)
(-1.57026e-08 0 0 3.14053e-08 0 -1.57026e-08)
(-5.31144e-09 0 0 1.06229e-08 0 -5.31144e-09)
(-1.61602e-08 0 0 3.23204e-08 0 -1.61602e-08)
(-4.11257e-09 0 0 8.22513e-09 0 -4.11257e-09)
(-3.19078e-08 0 0 6.38156e-08 0 -3.19078e-08)
(-1.007e-08 0 0 2.014e-08 0 -1.007e-08)
(-7.45174e-09 0 0 1.49035e-08 0 -7.45174e-09)
(-3.65195e-09 0 0 7.3039e-09 0 -3.65195e-09)
(-2.04099e-08 0 0 4.08198e-08 0 -2.04099e-08)
(-1.43917e-08 0 0 2.87834e-08 0 -1.43917e-08)
(-6.34612e-09 0 0 1.26922e-08 0 -6.34612e-09)
(-1.0069e-08 0 0 2.0138e-08 0 -1.0069e-08)
(-1.76449e-08 0 0 3.52897e-08 0 -1.76449e-08)
(-1.98054e-08 0 0 3.96107e-08 0 -1.98054e-08)
(-1.60527e-08 0 0 3.21055e-08 0 -1.60527e-08)
(-2.77325e-09 0 0 5.5465e-09 0 -2.77325e-09)
(-5.0303e-09 0 0 1.00606e-08 0 -5.0303e-09)
(-8.14273e-09 0 0 1.62855e-08 0 -8.14273e-09)
(-1.27419e-08 0 0 2.54838e-08 0 -1.27419e-08)
(-1.317e-08 0 0 2.63401e-08 0 -1.317e-08)
(-6.43735e-09 0 0 1.28747e-08 0 -6.43735e-09)
(-4.82115e-09 0 0 9.6423e-09 0 -4.82115e-09)
(-1.37129e-08 0 0 2.74258e-08 0 -1.37129e-08)
(-5.6736e-09 0 0 1.13472e-08 0 -5.6736e-09)
(-6.01271e-09 0 0 1.20254e-08 0 -6.01271e-09)
(-1.9586e-08 0 0 3.9172e-08 0 -1.9586e-08)
(-5.73742e-09 0 0 1.14748e-08 0 -5.73742e-09)
(-2.64273e-09 0 0 5.28545e-09 0 -2.64273e-09)
(-5.36873e-09 0 0 1.07375e-08 0 -5.36873e-09)
(-4.74705e-09 0 0 9.4941e-09 0 -4.74705e-09)
(-5.91797e-09 0 0 1.18359e-08 0 -5.91797e-09)
(-1.57054e-08 0 0 3.14108e-08 0 -1.57054e-08)
(-6.12254e-09 0 0 1.22451e-08 0 -6.12254e-09)
(-6.07787e-09 0 0 1.21557e-08 0 -6.07787e-09)
(-3.12625e-09 0 0 6.2525e-09 0 -3.12625e-09)
(-1.3595e-08 0 0 2.71901e-08 0 -1.3595e-08)
(-1.24252e-08 0 0 2.48503e-08 0 -1.24252e-08)
(-4.65026e-09 0 0 9.30053e-09 0 -4.65026e-09)
(-2.96303e-08 0 0 5.92605e-08 0 -2.96303e-08)
(-1.15957e-08 0 0 2.31915e-08 0 -1.15957e-08)
(-2.35513e-09 0 0 4.71026e-09 0 -2.35513e-09)
(-3.54918e-09 0 0 7.09836e-09 0 -3.54918e-09)
(-2.05251e-08 0 0 4.10503e-08 0 -2.05251e-08)
(-7.90596e-09 0 0 1.58119e-08 0 -7.90596e-09)
(-4.72413e-09 0 0 9.44826e-09 0 -4.72413e-09)
(-1.31632e-08 0 0 2.63264e-08 0 -1.31632e-08)
(-3.29332e-09 0 0 6.58664e-09 0 -3.29332e-09)
(-1.5968e-08 0 0 3.1936e-08 0 -1.5968e-08)
(-2.46469e-09 0 0 4.92937e-09 0 -2.46469e-09)
(-2.32273e-09 0 0 4.64546e-09 0 -2.32273e-09)
(-2.23405e-09 0 0 4.4681e-09 0 -2.23405e-09)
(-1.08724e-08 0 0 2.17448e-08 0 -1.08724e-08)
(-1.01386e-08 0 0 2.02771e-08 0 -1.01386e-08)
(-4.96667e-09 0 0 9.93334e-09 0 -4.96667e-09)
(-9.22159e-09 0 0 1.84432e-08 0 -9.22159e-09)
(-1.20561e-08 0 0 2.41122e-08 0 -1.20561e-08)
(-4.87887e-09 0 0 9.75774e-09 0 -4.87887e-09)
(-5.96272e-09 0 0 1.19254e-08 0 -5.96272e-09)
(-6.51829e-09 0 0 1.30366e-08 0 -6.51829e-09)
(-8.27497e-09 0 0 1.65499e-08 0 -8.27497e-09)
(-1.70593e-08 0 0 3.41186e-08 0 -1.70593e-08)
(-6.09151e-09 0 0 1.2183e-08 0 -6.09151e-09)
(-7.51493e-09 0 0 1.50299e-08 0 -7.51493e-09)
(-2.14471e-08 0 0 4.28942e-08 0 -2.14471e-08)
(-3.35229e-09 0 0 6.70458e-09 0 -3.35229e-09)
(-7.41355e-09 0 0 1.48271e-08 0 -7.41355e-09)
(-8.47718e-09 0 0 1.69544e-08 0 -8.47718e-09)
(-1.5888e-08 0 0 3.17759e-08 0 -1.5888e-08)
(-8.15003e-09 0 0 1.63001e-08 0 -8.15003e-09)
(-1.14421e-08 0 0 2.28842e-08 0 -1.14421e-08)
(-5.93935e-09 0 0 1.18787e-08 0 -5.93935e-09)
(-5.58536e-09 0 0 1.11707e-08 0 -5.58536e-09)
(-5.18087e-09 0 0 1.03617e-08 0 -5.18087e-09)
(-8.07276e-09 0 0 1.61455e-08 0 -8.07276e-09)
(-5.06305e-09 0 0 1.01261e-08 0 -5.06305e-09)
(-4.89059e-09 0 0 9.78118e-09 0 -4.89059e-09)
(-1.48519e-08 0 0 2.97037e-08 0 -1.48519e-08)
(-3.2139e-08 0 0 6.4278e-08 0 -3.2139e-08)
(-1.01559e-08 0 0 2.03118e-08 0 -1.01559e-08)
(-3.13251e-08 0 0 6.26503e-08 0 -3.13251e-08)
(-2.17846e-08 0 0 4.35693e-08 0 -2.17846e-08)
(-1.44258e-08 0 0 2.88516e-08 0 -1.44258e-08)
(-6.35576e-09 0 0 1.27115e-08 0 -6.35576e-09)
(-5.77809e-09 0 0 1.15562e-08 0 -5.77809e-09)
(-6.22413e-09 0 0 1.24483e-08 0 -6.22413e-09)
(-8.33889e-09 0 0 1.66778e-08 0 -8.33889e-09)
(-2.97224e-09 0 0 5.94448e-09 0 -2.97224e-09)
(-1.02891e-08 0 0 2.05782e-08 0 -1.02891e-08)
(-4.80892e-09 0 0 9.61785e-09 0 -4.80892e-09)
(-2.86575e-08 0 0 5.73149e-08 0 -2.86575e-08)
(-2.83652e-08 0 0 5.67305e-08 0 -2.83652e-08)
(-1.4169e-08 0 0 2.83379e-08 0 -1.4169e-08)
(-1.15792e-08 0 0 2.31584e-08 0 -1.15792e-08)
(-2.0921e-08 0 0 4.18421e-08 0 -2.0921e-08)
(-2.78472e-08 0 0 5.56945e-08 0 -2.78472e-08)
(-1.00574e-08 0 0 2.01148e-08 0 -1.00574e-08)
(-3.94368e-09 0 0 7.88736e-09 0 -3.94368e-09)
(-4.94548e-09 0 0 9.89096e-09 0 -4.94548e-09)
(-4.18473e-09 0 0 8.36947e-09 0 -4.18473e-09)
(-2.01968e-08 0 0 4.03936e-08 0 -2.01968e-08)
(-9.81151e-09 0 0 1.9623e-08 0 -9.81151e-09)
(-1.81152e-08 0 0 3.62303e-08 0 -1.81152e-08)
(-5.90479e-09 0 0 1.18096e-08 0 -5.90479e-09)
(-1.95816e-08 0 0 3.91631e-08 0 -1.95816e-08)
(-2.4789e-08 0 0 4.9578e-08 0 -2.4789e-08)
(-9.21358e-09 0 0 1.84272e-08 0 -9.21358e-09)
(-5.37993e-09 0 0 1.07599e-08 0 -5.37993e-09)
(-1.4098e-08 0 0 2.8196e-08 0 -1.4098e-08)
(-1.21481e-08 0 0 2.42962e-08 0 -1.21481e-08)
(-4.87879e-09 0 0 9.75758e-09 0 -4.87879e-09)
(-1.14775e-08 0 0 2.29549e-08 0 -1.14775e-08)
(-6.36327e-09 0 0 1.27265e-08 0 -6.36327e-09)
(-8.34309e-09 0 0 1.66862e-08 0 -8.34309e-09)
(-5.56819e-09 0 0 1.11364e-08 0 -5.56819e-09)
(-4.67483e-09 0 0 9.34967e-09 0 -4.67483e-09)
(-9.77326e-09 0 0 1.95465e-08 0 -9.77326e-09)
(-2.29074e-08 0 0 4.58148e-08 0 -2.29074e-08)
(-7.38878e-09 0 0 1.47776e-08 0 -7.38878e-09)
(-1.3082e-08 0 0 2.61639e-08 0 -1.3082e-08)
(-7.0467e-09 0 0 1.40934e-08 0 -7.0467e-09)
(-1.69331e-08 0 0 3.38661e-08 0 -1.69331e-08)
(-8.16786e-09 0 0 1.63357e-08 0 -8.16786e-09)
(-7.81929e-09 0 0 1.56386e-08 0 -7.81929e-09)
(-5.24165e-09 0 0 1.04833e-08 0 -5.24165e-09)
(-9.07418e-09 0 0 1.81484e-08 0 -9.07418e-09)
(-1.39467e-08 0 0 2.78934e-08 0 -1.39467e-08)
(-1.22287e-08 0 0 2.44575e-08 0 -1.22287e-08)
(-7.32666e-09 0 0 1.46533e-08 0 -7.32666e-09)
(-1.31975e-08 0 0 2.63949e-08 0 -1.31975e-08)
(-2.33682e-08 0 0 4.67364e-08 0 -2.33682e-08)
(-6.80638e-09 0 0 1.36128e-08 0 -6.80638e-09)
(-6.17688e-09 0 0 1.23538e-08 0 -6.17688e-09)
(-1.50503e-08 0 0 3.01006e-08 0 -1.50503e-08)
(-3.1484e-08 0 0 6.29679e-08 0 -3.1484e-08)
(-1.20803e-08 0 0 2.41606e-08 0 -1.20803e-08)
(-1.14942e-08 0 0 2.29885e-08 0 -1.14942e-08)
(-1.04696e-08 0 0 2.09391e-08 0 -1.04696e-08)
(-2.61131e-08 0 0 5.22261e-08 0 -2.61131e-08)
(-2.74631e-08 0 0 5.49262e-08 0 -2.74631e-08)
(-3.12692e-08 0 0 6.25384e-08 0 -3.12692e-08)
(-1.59768e-08 0 0 3.19537e-08 0 -1.59768e-08)
(-5.94856e-09 0 0 1.18971e-08 0 -5.94856e-09)
(-5.54094e-09 0 0 1.10819e-08 0 -5.54094e-09)
(-3.50384e-08 0 0 7.00768e-08 0 -3.50384e-08)
(-1.23698e-08 0 0 2.47396e-08 0 -1.23698e-08)
(-1.12002e-08 0 0 2.24004e-08 0 -1.12002e-08)
(-1.31909e-08 0 0 2.63818e-08 0 -1.31909e-08)
(-1.845e-08 0 0 3.69e-08 0 -1.845e-08)
(-1.29195e-08 0 0 2.5839e-08 0 -1.29195e-08)
(-2.41054e-08 0 0 4.82107e-08 0 -2.41054e-08)
(-2.20986e-08 0 0 4.41972e-08 0 -2.20986e-08)
(-4.13651e-09 0 0 8.27302e-09 0 -4.13651e-09)
(-2.79333e-09 0 0 5.58665e-09 0 -2.79333e-09)
(-5.24991e-09 0 0 1.04998e-08 0 -5.24991e-09)
(-1.11902e-08 0 0 2.23805e-08 0 -1.11902e-08)
(-3.03083e-09 0 0 6.06165e-09 0 -3.03083e-09)
(-1.91392e-08 0 0 3.82784e-08 0 -1.91392e-08)
(-1.44482e-08 0 0 2.88964e-08 0 -1.44482e-08)
(-1.31151e-08 0 0 2.62302e-08 0 -1.31151e-08)
(-4.66121e-08 0 0 9.32241e-08 0 -4.66121e-08)
(-8.96322e-08 0 0 1.79264e-07 0 -8.96322e-08)
(-4.30003e-08 0 0 8.60007e-08 0 -4.30003e-08)
(-4.42597e-08 0 0 8.85195e-08 0 -4.42597e-08)
(-3.91312e-08 0 0 7.82623e-08 0 -3.91312e-08)
(-1.82606e-08 0 0 3.65211e-08 0 -1.82606e-08)
(-1.35611e-08 0 0 2.71223e-08 0 -1.35611e-08)
(-1.02067e-08 0 0 2.04134e-08 0 -1.02067e-08)
(-2.55831e-08 0 0 5.11663e-08 0 -2.55831e-08)
(-2.86379e-08 0 0 5.72757e-08 0 -2.86379e-08)
(-3.5477e-09 0 0 7.0954e-09 0 -3.5477e-09)
(-1.89737e-09 0 0 3.79473e-09 0 -1.89737e-09)
(-2.23621e-09 0 0 4.47242e-09 0 -2.23621e-09)
(-5.79978e-09 0 0 1.15996e-08 0 -5.79978e-09)
(-5.17212e-09 0 0 1.03442e-08 0 -5.17212e-09)
(-1.00292e-08 0 0 2.00583e-08 0 -1.00292e-08)
(-7.33109e-09 0 0 1.46622e-08 0 -7.33109e-09)
(-1.64625e-08 0 0 3.2925e-08 0 -1.64625e-08)
(-4.13342e-08 0 0 8.26685e-08 0 -4.13342e-08)
(-1.66203e-08 0 0 3.32405e-08 0 -1.66203e-08)
(-1.75358e-08 0 0 3.50716e-08 0 -1.75358e-08)
(-8.77744e-09 0 0 1.75549e-08 0 -8.77744e-09)
(-1.1608e-08 0 0 2.32161e-08 0 -1.1608e-08)
(-2.839e-08 0 0 5.678e-08 0 -2.839e-08)
(-1.86798e-08 0 0 3.73595e-08 0 -1.86798e-08)
(-2.05846e-08 0 0 4.11692e-08 0 -2.05846e-08)
(-1.08073e-08 0 0 2.16147e-08 0 -1.08073e-08)
(-5.13387e-09 0 0 1.02677e-08 0 -5.13387e-09)
(-3.4872e-09 0 0 6.97441e-09 0 -3.4872e-09)
(-3.03463e-09 0 0 6.06926e-09 0 -3.03463e-09)
(-2.74686e-09 0 0 5.49372e-09 0 -2.74686e-09)
(-3.02571e-09 0 0 6.05142e-09 0 -3.02571e-09)
(-7.97847e-09 0 0 1.59569e-08 0 -7.97847e-09)
(-8.33515e-09 0 0 1.66703e-08 0 -8.33515e-09)
(-7.88127e-09 0 0 1.57625e-08 0 -7.88127e-09)
(-1.50117e-08 0 0 3.00235e-08 0 -1.50117e-08)
(-1.88862e-08 0 0 3.77725e-08 0 -1.88862e-08)
(-2.36677e-08 0 0 4.73353e-08 0 -2.36677e-08)
(-2.66822e-08 0 0 5.33644e-08 0 -2.66822e-08)
(-2.92273e-08 0 0 5.84546e-08 0 -2.92273e-08)
(-3.33515e-08 0 0 6.6703e-08 0 -3.33515e-08)
(-1.29245e-08 0 0 2.5849e-08 0 -1.29245e-08)
(-1.23922e-08 0 0 2.47845e-08 0 -1.23922e-08)
(-8.66914e-09 0 0 1.73383e-08 0 -8.66914e-09)
(-5.7153e-09 0 0 1.14306e-08 0 -5.7153e-09)
(-3.32035e-09 0 0 6.6407e-09 0 -3.32035e-09)
(-6.22517e-09 0 0 1.24503e-08 0 -6.22517e-09)
(-2.2187e-08 0 0 4.43741e-08 0 -2.2187e-08)
(-5.97517e-09 0 0 1.19503e-08 0 -5.97517e-09)
(-4.53263e-08 0 0 9.06525e-08 0 -4.53263e-08)
(-1.18917e-08 0 0 2.37834e-08 0 -1.18917e-08)
(-6.01599e-09 0 0 1.2032e-08 0 -6.01599e-09)
(-1.12333e-08 0 0 2.24665e-08 0 -1.12333e-08)
(-1.09439e-08 0 0 2.18878e-08 0 -1.09439e-08)
(-7.58296e-09 0 0 1.51659e-08 0 -7.58296e-09)
(-7.99777e-09 0 0 1.59955e-08 0 -7.99777e-09)
(-1.10359e-08 0 0 2.20719e-08 0 -1.10359e-08)
(-2.11148e-08 0 0 4.22296e-08 0 -2.11148e-08)
(-1.28608e-08 0 0 2.57216e-08 0 -1.28608e-08)
(-1.05109e-08 0 0 2.10218e-08 0 -1.05109e-08)
(-1.61996e-08 0 0 3.23993e-08 0 -1.61996e-08)
(-8.12749e-09 0 0 1.6255e-08 0 -8.12749e-09)
(-6.0117e-09 0 0 1.20234e-08 0 -6.0117e-09)
(-4.56642e-09 0 0 9.13284e-09 0 -4.56642e-09)
(-4.09032e-09 0 0 8.18063e-09 0 -4.09032e-09)
(-1.03553e-08 0 0 2.07105e-08 0 -1.03553e-08)
(-3.02311e-09 0 0 6.04622e-09 0 -3.02311e-09)
(-1.81596e-08 0 0 3.63192e-08 0 -1.81596e-08)
(-5.76323e-09 0 0 1.15265e-08 0 -5.76323e-09)
(-3.3753e-09 0 0 6.75059e-09 0 -3.3753e-09)
(-3.91841e-09 0 0 7.83683e-09 0 -3.91841e-09)
(-2.7959e-09 0 0 5.5918e-09 0 -2.7959e-09)
(-3.30736e-09 0 0 6.61471e-09 0 -3.30736e-09)
(-4.94045e-09 0 0 9.8809e-09 0 -4.94045e-09)
(-1.53666e-08 0 0 3.07331e-08 0 -1.53666e-08)
(-7.25642e-09 0 0 1.45128e-08 0 -7.25642e-09)
(-3.16929e-08 0 0 6.33859e-08 0 -3.16929e-08)
(-1.35751e-08 0 0 2.71503e-08 0 -1.35751e-08)
(-1.06719e-08 0 0 2.13438e-08 0 -1.06719e-08)
(-7.58637e-09 0 0 1.51727e-08 0 -7.58637e-09)
(-4.46882e-09 0 0 8.93763e-09 0 -4.46882e-09)
(-6.11166e-09 0 0 1.22233e-08 0 -6.11166e-09)
(-9.67946e-09 0 0 1.93589e-08 0 -9.67946e-09)
(-2.40253e-09 0 0 4.80505e-09 0 -2.40253e-09)
(-3.18383e-09 0 0 6.36765e-09 0 -3.18383e-09)
(-1.07969e-08 0 0 2.15937e-08 0 -1.07969e-08)
(-1.01886e-08 0 0 2.03772e-08 0 -1.01886e-08)
(-2.31557e-09 0 0 4.63113e-09 0 -2.31557e-09)
(-5.97344e-09 0 0 1.19469e-08 0 -5.97344e-09)
(-7.66038e-09 0 0 1.53208e-08 0 -7.66038e-09)
(-7.47791e-09 0 0 1.49558e-08 0 -7.47791e-09)
(-8.38949e-09 0 0 1.6779e-08 0 -8.38949e-09)
(-4.98549e-09 0 0 9.97099e-09 0 -4.98549e-09)
(-1.23489e-08 0 0 2.46978e-08 0 -1.23489e-08)
(-1.04082e-08 0 0 2.08163e-08 0 -1.04082e-08)
(-6.33846e-09 0 0 1.26769e-08 0 -6.33846e-09)
(-1.58991e-08 0 0 3.17982e-08 0 -1.58991e-08)
(-8.78698e-09 0 0 1.7574e-08 0 -8.78698e-09)
(-1.03348e-08 0 0 2.06697e-08 0 -1.03348e-08)
(-3.64659e-09 0 0 7.29318e-09 0 -3.64659e-09)
(-2.89865e-09 0 0 5.79729e-09 0 -2.89865e-09)
(-7.14889e-09 0 0 1.42978e-08 0 -7.14889e-09)
(-1.87261e-08 0 0 3.74522e-08 0 -1.87261e-08)
(-7.99673e-09 0 0 1.59935e-08 0 -7.99673e-09)
(-2.07742e-09 0 0 4.15485e-09 0 -2.07742e-09)
(-2.26363e-09 0 0 4.52726e-09 0 -2.26363e-09)
(-2.38304e-09 0 0 4.76608e-09 0 -2.38304e-09)
(-3.62082e-09 0 0 7.24163e-09 0 -3.62082e-09)
(-7.90535e-09 0 0 1.58107e-08 0 -7.90535e-09)
(-2.12342e-08 0 0 4.24683e-08 0 -2.12342e-08)
(-9.98706e-09 0 0 1.99741e-08 0 -9.98706e-09)
(-1.30819e-08 0 0 2.61638e-08 0 -1.30819e-08)
(-7.52556e-09 0 0 1.50511e-08 0 -7.52556e-09)
(-1.14353e-08 0 0 2.28706e-08 0 -1.14353e-08)
(-3.01195e-09 0 0 6.0239e-09 0 -3.01195e-09)
(-2.52324e-09 0 0 5.04648e-09 0 -2.52324e-09)
(-4.74467e-09 0 0 9.48935e-09 0 -4.74467e-09)
(-2.64726e-08 0 0 5.29452e-08 0 -2.64726e-08)
(-1.67833e-08 0 0 3.35665e-08 0 -1.67833e-08)
(-7.28466e-09 0 0 1.45693e-08 0 -7.28466e-09)
(-7.19103e-09 0 0 1.43821e-08 0 -7.19103e-09)
(-5.0668e-09 0 0 1.01336e-08 0 -5.0668e-09)
(-5.64092e-09 0 0 1.12818e-08 0 -5.64092e-09)
(-2.87323e-09 0 0 5.74646e-09 0 -2.87323e-09)
(-8.664e-09 0 0 1.7328e-08 0 -8.664e-09)
(-2.82076e-09 0 0 5.64151e-09 0 -2.82076e-09)
(-4.44489e-09 0 0 8.88978e-09 0 -4.44489e-09)
(-1.50788e-08 0 0 3.01575e-08 0 -1.50788e-08)
(-1.18575e-08 0 0 2.37149e-08 0 -1.18575e-08)
(-2.1974e-08 0 0 4.3948e-08 0 -2.1974e-08)
(-6.38056e-09 0 0 1.27611e-08 0 -6.38056e-09)
(-3.99863e-09 0 0 7.99726e-09 0 -3.99863e-09)
(-3.27205e-09 0 0 6.5441e-09 0 -3.27205e-09)
(-4.9189e-09 0 0 9.83781e-09 0 -4.9189e-09)
(-3.07523e-09 0 0 6.15046e-09 0 -3.07523e-09)
(-2.8767e-09 0 0 5.7534e-09 0 -2.8767e-09)
(-3.88844e-09 0 0 7.77687e-09 0 -3.88844e-09)
(-7.07836e-09 0 0 1.41567e-08 0 -7.07836e-09)
(-4.34636e-09 0 0 8.69273e-09 0 -4.34636e-09)
(-4.80932e-09 0 0 9.61864e-09 0 -4.80932e-09)
(-1.46105e-08 0 0 2.92211e-08 0 -1.46105e-08)
(-9.30192e-09 0 0 1.86038e-08 0 -9.30192e-09)
(-5.00293e-09 0 0 1.00059e-08 0 -5.00293e-09)
(-4.43213e-09 0 0 8.86425e-09 0 -4.43213e-09)
(-1.74747e-08 0 0 3.49495e-08 0 -1.74747e-08)
(-4.54976e-09 0 0 9.09953e-09 0 -4.54976e-09)
(-8.84974e-09 0 0 1.76995e-08 0 -8.84974e-09)
(-3.2257e-09 0 0 6.4514e-09 0 -3.2257e-09)
(-5.10698e-09 0 0 1.0214e-08 0 -5.10698e-09)
(-1.0272e-08 0 0 2.05441e-08 0 -1.0272e-08)
(-1.04887e-08 0 0 2.09773e-08 0 -1.04887e-08)
(-1.28722e-08 0 0 2.57444e-08 0 -1.28722e-08)
(-8.24674e-09 0 0 1.64935e-08 0 -8.24674e-09)
(-1.30389e-08 0 0 2.60779e-08 0 -1.30389e-08)
(-3.5651e-08 0 0 7.1302e-08 0 -3.5651e-08)
(-1.07806e-08 0 0 2.15612e-08 0 -1.07806e-08)
(-2.9127e-09 0 0 5.82539e-09 0 -2.9127e-09)
(-4.46756e-09 0 0 8.93512e-09 0 -4.46756e-09)
(-7.01751e-09 0 0 1.4035e-08 0 -7.01751e-09)
(-7.32506e-09 0 0 1.46501e-08 0 -7.32506e-09)
(-1.44177e-08 0 0 2.88355e-08 0 -1.44177e-08)
(-1.27953e-08 0 0 2.55906e-08 0 -1.27953e-08)
(-1.43457e-08 0 0 2.86913e-08 0 -1.43457e-08)
(-1.53639e-08 0 0 3.07277e-08 0 -1.53639e-08)
(-7.47127e-09 0 0 1.49425e-08 0 -7.47127e-09)
(-4.09725e-09 0 0 8.1945e-09 0 -4.09725e-09)
(-4.181e-09 0 0 8.36201e-09 0 -4.181e-09)
(-5.19092e-09 0 0 1.03818e-08 0 -5.19092e-09)
(-5.20682e-09 0 0 1.04136e-08 0 -5.20682e-09)
(-7.44492e-09 0 0 1.48898e-08 0 -7.44492e-09)
(-3.05734e-08 0 0 6.11468e-08 0 -3.05734e-08)
(-1.24783e-08 0 0 2.49566e-08 0 -1.24783e-08)
(-1.32599e-08 0 0 2.65198e-08 0 -1.32599e-08)
(-5.50314e-09 0 0 1.10063e-08 0 -5.50314e-09)
(-7.88602e-09 0 0 1.5772e-08 0 -7.88602e-09)
(-8.74101e-09 0 0 1.7482e-08 0 -8.74101e-09)
(-1.68732e-08 0 0 3.37463e-08 0 -1.68732e-08)
(-4.78667e-09 0 0 9.57334e-09 0 -4.78667e-09)
(-4.20648e-09 0 0 8.41296e-09 0 -4.20648e-09)
(-4.34971e-09 0 0 8.69943e-09 0 -4.34971e-09)
(-5.00167e-09 0 0 1.00033e-08 0 -5.00167e-09)
(-8.44415e-09 0 0 1.68883e-08 0 -8.44415e-09)
(-1.31701e-08 0 0 2.63403e-08 0 -1.31701e-08)
(-5.64187e-09 0 0 1.12837e-08 0 -5.64187e-09)
(-6.70846e-09 0 0 1.34169e-08 0 -6.70846e-09)
(-1.6226e-08 0 0 3.24521e-08 0 -1.6226e-08)
(-6.68381e-09 0 0 1.33676e-08 0 -6.68381e-09)
(-5.36113e-09 0 0 1.07223e-08 0 -5.36113e-09)
(-6.00161e-09 0 0 1.20032e-08 0 -6.00161e-09)
(-7.35737e-09 0 0 1.47147e-08 0 -7.35737e-09)
(-2.09074e-08 0 0 4.18149e-08 0 -2.09074e-08)
(-1.38878e-08 0 0 2.77757e-08 0 -1.38878e-08)
(-2.17579e-08 0 0 4.35159e-08 0 -2.17579e-08)
(-1.76642e-08 0 0 3.53284e-08 0 -1.76642e-08)
(-1.60555e-08 0 0 3.2111e-08 0 -1.60555e-08)
(-1.75431e-08 0 0 3.50862e-08 0 -1.75431e-08)
(-2.60539e-08 0 0 5.21079e-08 0 -2.60539e-08)
(-6.35303e-08 0 0 1.27061e-07 0 -6.35303e-08)
(-1.34225e-08 0 0 2.68451e-08 0 -1.34225e-08)
(-1.67305e-08 0 0 3.3461e-08 0 -1.67305e-08)
(-2.18696e-08 0 0 4.37393e-08 0 -2.18696e-08)
(-1.69776e-08 0 0 3.39551e-08 0 -1.69776e-08)
(-1.31078e-08 0 0 2.62157e-08 0 -1.31078e-08)
(-1.26467e-08 0 0 2.52935e-08 0 -1.26467e-08)
(-1.24261e-08 0 0 2.48522e-08 0 -1.24261e-08)
(-1.25653e-08 0 0 2.51307e-08 0 -1.25653e-08)
(-1.29783e-08 0 0 2.59566e-08 0 -1.29783e-08)
(-1.43249e-08 0 0 2.86499e-08 0 -1.43249e-08)
(-2.02221e-08 0 0 4.04442e-08 0 -2.02221e-08)