/*--------------------------------*- C++ -*----------------------------------*\
  =========                 |
  \\      /  F ield         | OpenFOAM: The Open Source CFD Toolbox
   \\    /   O peration     | Website:  https://openfoam.org
    \\  /    A nd           | Version:  7
     \\/     M anipulation  |
\*---------------------------------------------------------------------------*/
FoamFile
{
    version     2.0;
    format      ascii;
    class       volScalarField;
    location    "0.01";
    object      dgdt;
}
// * * * * * * * * * * * * * * * * * * * * * * * * * * * * * * * * * * * * * //

dimensions      [0 0 -1 0 0 0 0];

internalField   nonuniform List<scalar> 
10790
(
-1.39275e-15
5.84679e-16
-1.00514e-15
1.59031e-15
-1.1708e-15
2.4023e-15
4.12438e-15
2.47263e-15
1.59113e-15
-4.60779e-16
1.34941e-15
1.98523e-15
1.07988e-18
-1.08589e-15
3.4467e-15
-4.00982e-16
2.80141e-15
1.37148e-15
3.09307e-15
8.15912e-16
1.83369e-15
1.44913e-15
1.33594e-15
-7.57545e-16
-4.37278e-16
-3.75964e-16
3.5278e-15
-1.75585e-15
2.78287e-15
-7.9883e-16
1.91826e-15
-2.16092e-16
1.10467e-15
-1.86144e-15
-2.95026e-16
3.19366e-15
3.29608e-15
2.8852e-15
1.27751e-15
1.223e-15
2.91038e-15
2.83889e-15
1.30993e-15
-3.03452e-16
1.26028e-15
4.29878e-15
-1.34659e-15
8.15945e-16
3.12008e-15
8.94701e-16
1.24255e-15
2.10569e-15
-2.55336e-16
1.32555e-15
-3.1199e-16
2.19735e-15
1.7229e-15
1.63138e-15
2.20617e-15
5.7081e-16
2.44321e-15
-2.93888e-16
1.96793e-16
-1.50567e-15
1.46848e-15
-8.07645e-16
3.11128e-15
6.86751e-16
1.32061e-15
7.2365e-16
7.68805e-16
1.93591e-15
1.43837e-15
1.90897e-15
4.21508e-15
1.28081e-15
-7.85402e-16
7.55219e-16
3.40055e-15
2.83769e-15
-1.19951e-15
6.45214e-16
-5.74895e-16
-8.64369e-16
1.90614e-15
-8.34737e-17
1.87825e-15
2.83151e-15
3.80862e-16
1.66902e-15
2.4788e-15
-5.24395e-16
7.25502e-17
1.50389e-16
2.25119e-15
9.7949e-17
1.86771e-15
1.01154e-15
-4.44324e-16
1.57812e-15
1.82897e-15
-9.87126e-16
1.2041e-15
9.35496e-16
1.6909e-15
-5.4456e-16
2.43354e-15
3.37411e-15
-7.86241e-16
-7.68788e-16
-1.14273e-15
-1.41391e-15
1.48802e-15
7.17187e-16
2.10479e-15
-2.97569e-16
-1.09413e-15
1.40035e-15
2.87473e-15
2.55749e-17
1.50339e-15
7.45552e-16
1.8808e-15
1.09662e-15
-8.09793e-16
5.0452e-16
-9.83697e-16
-9.98843e-16
3.6831e-15
2.08088e-15
1.73474e-15
2.70794e-15
1.61912e-15
4.04724e-15
5.19941e-16
1.07129e-15
-2.01671e-15
5.11321e-16
-3.52967e-16
-3.42866e-16
2.55989e-16
9.67743e-16
2.16568e-15
2.45103e-15
1.45014e-15
7.06591e-16
2.38086e-15
2.69668e-15
2.05884e-15
-2.1018e-15
9.35614e-16
9.25563e-17
8.78598e-16
1.47054e-15
-3.13575e-16
1.66994e-15
1.88474e-15
2.5313e-15
2.10028e-15
1.50153e-15
-5.51992e-16
1.38522e-15
-1.26327e-15
-6.28151e-16
3.10249e-15
1.1863e-15
1.58719e-15
3.15593e-15
-2.5122e-15
3.79402e-15
-1.55536e-15
3.35609e-16
2.24396e-15
1.06464e-15
5.80701e-16
1.50165e-15
4.19639e-15
-1.25616e-15
-2.10633e-15
-5.55001e-16
-7.43692e-16
-1.22619e-15
2.78261e-15
-7.41085e-16
1.34937e-15
5.14668e-16
2.1989e-15
1.34961e-15
-3.76083e-16
-1.74086e-15
1.45722e-15
2.14022e-15
1.77707e-15
1.54594e-15
9.90866e-16
1.20019e-15
2.54966e-15
5.04042e-16
-1.99966e-17
5.80168e-16
5.94629e-16
-4.2921e-17
3.00901e-15
4.63754e-16
1.79231e-16
-4.64962e-17
-1.88651e-15
2.52648e-15
-1.14525e-15
2.08848e-15
1.78998e-16
-3.00226e-16
1.43914e-15
-2.04398e-15
3.18707e-16
-1.675e-16
3.74409e-17
1.41466e-15
1.24066e-15
6.97512e-16
2.20551e-15
-7.02247e-16
-5.23077e-16
-2.10033e-15
4.46886e-16
1.70589e-16
-4.54848e-16
-8.55621e-16
3.05473e-15
1.87475e-15
1.12632e-15
-2.4706e-16
5.06422e-17
1.75997e-15
4.78415e-16
2.62311e-15
2.19697e-15
1.54055e-15
1.97103e-15
-1.16532e-15
1.79025e-15
-1.03996e-15
1.749e-16
-1.15973e-16
9.53596e-16
2.82447e-15
-1.36651e-15
7.9923e-16
-2.91781e-16
4.92697e-16
1.37725e-16
3.0874e-15
9.10057e-16
1.20902e-15
3.30431e-15
3.03718e-15
2.41016e-15
7.42974e-17
-7.79777e-16
6.80917e-16
-8.24523e-16
1.69359e-15
-2.61481e-15
3.12711e-15
2.18198e-15
9.42319e-16
2.82568e-15
-7.49239e-16
-1.3566e-15
2.38735e-15
1.56617e-15
4.07217e-15
1.95777e-15
2.36195e-15
3.06354e-15
-6.25948e-16
-2.78717e-16
-8.9535e-16
1.39381e-15
3.24263e-15
9.26053e-17
-1.26356e-15
9.83945e-17
-1.05598e-15
-2.13981e-15
2.3621e-15
3.04097e-15
1.19405e-15
-1.55412e-15
3.10941e-15
-7.48e-16
1.50739e-15
1.76853e-15
8.39568e-16
3.09821e-15
-1.05526e-15
-5.21279e-16
9.19397e-16
1.32444e-15
-1.83551e-16
-2.68242e-16
1.46017e-15
8.78393e-16
7.99557e-16
7.23826e-16
-2.22165e-15
3.62515e-16
-1.96887e-15
3.23498e-15
-6.19641e-16
-8.14906e-16
2.32274e-15
2.82372e-17
5.63938e-16
3.77851e-15
1.82551e-15
-7.30776e-16
-2.50614e-15
-3.99561e-17
-3.99431e-16
3.00033e-15
2.74302e-15
3.21121e-15
1.74788e-15
3.246e-16
1.55876e-15
2.27804e-15
1.80509e-15
2.11355e-15
2.90762e-15
2.24199e-15
3.51222e-15
2.89628e-15
1.92298e-15
-3.23103e-16
1.71395e-15
2.79798e-16
-1.57335e-15
-1.44278e-15
-2.7117e-16
1.44789e-15
1.49442e-15
3.04079e-16
1.05617e-16
1.0935e-15
3.31394e-15
-2.53561e-15
-3.84138e-16
3.12797e-15
-3.41094e-16
1.77407e-15
-4.42302e-16
2.19333e-15
2.92116e-15
-1.14612e-15
1.3983e-15
-1.59572e-15
-4.77264e-16
2.1437e-15
-8.40711e-16
1.99669e-15
-2.48563e-15
-9.29456e-16
-1.15377e-15
2.25668e-15
6.60173e-16
2.31731e-15
-1.83205e-15
-2.48381e-15
-2.17646e-15
1.14044e-15
2.13442e-15
-4.64766e-17
1.06794e-15
-1.35208e-15
1.46355e-15
-1.24225e-15
6.65335e-16
3.78366e-15
-2.41529e-15
1.18752e-15
4.74232e-16
-1.53316e-16
-1.6843e-15
-2.68279e-16
7.21651e-16
6.92365e-16
-1.39204e-15
4.26555e-16
-6.72572e-16
2.48997e-15
3.79811e-15
2.78577e-15
-1.84838e-15
-1.3754e-15
-9.43525e-16
-2.48102e-16
-3.77811e-16
-5.39781e-16
1.19981e-15
-3.39635e-16
2.94347e-15
-4.4662e-16
-4.35588e-16
1.04484e-16
2.20455e-15
-1.04627e-15
2.78626e-15
5.51417e-16
4.12273e-15
1.1094e-15
4.10884e-15
2.4396e-16
1.61323e-15
-1.68639e-15
-1.4501e-15
2.36762e-15
3.25614e-15
3.359e-15
-9.57175e-18
5.03862e-16
1.40687e-15
-6.34628e-16
2.39617e-15
-1.813e-16
4.02215e-16
8.70166e-17
-1.10517e-16
-5.28804e-16
1.19741e-15
7.8369e-16
3.0884e-15
4.08742e-15
-1.81399e-15
2.14046e-16
3.03389e-15
-2.08052e-16
5.92732e-16
2.71098e-15
-2.02145e-15
2.77152e-15
7.42113e-16
2.25178e-15
2.61647e-15
2.01189e-15
-3.45196e-16
1.82219e-16
3.40707e-16
8.23465e-16
4.24627e-15
9.21802e-16
1.59641e-15
-1.39042e-15
1.28338e-15
3.0655e-15
4.73251e-16
3.00035e-15
4.09007e-15
2.13582e-15
9.87481e-16
-4.03481e-16
2.48688e-15
4.16688e-16
-5.07838e-16
1.29804e-15
-2.8292e-16
3.97528e-15
6.17818e-16
-1.1355e-15
2.63936e-16
2.90944e-15
1.0394e-15
4.43828e-15
-1.75633e-15
-8.51154e-16
-1.86374e-15
2.335e-15
2.93968e-16
2.35198e-15
3.34995e-15
3.67136e-15
-6.77651e-16
2.56821e-15
2.35199e-15
-4.16755e-16
2.27266e-15
-2.30463e-15
-3.03418e-16
-1.24787e-16
1.32116e-15
3.77617e-15
1.85436e-15
-2.15471e-15
-1.39651e-15
1.55996e-16
-1.26367e-15
2.26243e-15
2.81824e-15
3.03591e-15
2.23315e-15
2.44266e-15
2.01143e-15
4.83467e-16
3.05778e-15
-1.90636e-15
2.37221e-15
7.7712e-16
7.82183e-16
2.69227e-17
-3.41266e-16
4.33342e-15
7.06481e-16
-2.21119e-16
2.8001e-15
1.91002e-16
-6.74514e-16
3.92869e-15
-5.01196e-16
4.10861e-16
6.8787e-16
3.10207e-15
-1.08273e-15
1.64717e-15
1.3935e-15
2.16908e-15
1.6494e-15
2.58877e-15
3.67297e-15
4.32363e-16
-4.95975e-16
-3.09022e-16
4.00409e-16
1.96125e-15
2.42226e-15
7.33653e-16
3.54969e-15
-3.50502e-17
3.13919e-15
-2.50502e-15
2.27863e-15
-2.11064e-15
3.38488e-15
2.63064e-15
-4.17852e-16
-7.10318e-17
-5.56617e-16
3.35819e-15
-1.2215e-15
-1.30242e-15
2.65679e-15
-1.43251e-16
-2.15158e-15
-8.72616e-16
2.17765e-15
1.64085e-15
-1.45452e-15
2.0763e-15
4.06377e-17
-6.58726e-16
-1.86482e-15
-8.65917e-16
2.69469e-15
3.43858e-15
2.20526e-15
1.95493e-15
2.19244e-15
-2.07166e-16
-1.34379e-15
-1.72819e-15
-3.50043e-16
-1.27877e-16
-3.43759e-16
2.15724e-15
1.88035e-15
1.9334e-15
1.52161e-15
1.80975e-15
1.43263e-15
8.79244e-16
-2.24827e-15
2.79359e-15
-4.7413e-17
5.31209e-17
4.17122e-15
1.09787e-15
-3.59251e-18
-3.31872e-16
1.95694e-15
-1.49812e-15
1.62599e-15
2.01226e-15
1.37678e-15
9.20877e-17
2.64223e-15
1.08135e-15
7.83461e-17
-9.8329e-16
-3.09695e-16
1.24506e-15
-5.35858e-16
1.731e-16
1.14416e-16
-1.75115e-15
2.04249e-16
3.6265e-15
3.73341e-17
2.19774e-15
3.82563e-15
1.53352e-15
1.48065e-15
1.85358e-15
1.54991e-15
2.62988e-15
1.48897e-15
-7.6421e-16
-6.48608e-16
-2.15871e-15
4.41193e-15
1.61483e-15
2.02524e-15
4.02352e-16
-1.10515e-15
4.7452e-16
5.13078e-16
1.45486e-15
7.88414e-16
1.58917e-15
7.46167e-16
-1.46998e-15
-1.93717e-15
2.97894e-15
4.18389e-15
1.81548e-16
6.49547e-16
3.21747e-15
-1.24541e-15
-8.97752e-16
3.39564e-15
4.62856e-16
1.30444e-15
9.33996e-16
5.7737e-17
2.2939e-15
1.85385e-16
2.7316e-15
-8.92471e-16
2.27188e-15
1.13414e-15
6.97473e-16
1.98725e-15
3.28885e-15
-2.43744e-15
1.58354e-16
1.20062e-15
-1.6235e-15
-1.29278e-15
1.68882e-15
1.57725e-16
1.08964e-15
-1.62084e-15
2.11319e-15
9.98492e-16
1.73889e-15
3.8385e-17
4.07721e-16
-8.94107e-16
2.06395e-15
2.21828e-15
1.73279e-15
7.9873e-16
-2.40934e-15
1.01447e-15
-4.63983e-16
-7.72747e-16
-1.47366e-15
1.8234e-16
3.7713e-15
-1.5537e-17
4.19506e-15
2.91345e-15
3.70264e-15
5.20366e-16
1.50751e-15
1.164e-15
1.95514e-16
4.90733e-16
9.46182e-16
-3.78144e-16
1.57081e-15
-2.44547e-16
8.19832e-16
1.77981e-15
-6.9566e-16
3.1907e-15
-5.36279e-16
-4.24173e-17
2.85915e-15
1.77244e-15
1.48003e-15
9.93662e-16
9.52597e-16
-1.01652e-15
5.25021e-16
1.47501e-15
3.21676e-15
3.2066e-16
-4.12145e-16
2.50939e-15
-4.9432e-16
1.97112e-15
1.09095e-15
2.25925e-15
3.24176e-15
-1.88647e-15
8.40876e-16
9.70192e-16
-7.49211e-16
9.58482e-16
2.30371e-15
-9.07889e-16
2.0231e-15
-1.18046e-15
-1.90553e-15
-3.78996e-16
1.21476e-15
1.57927e-15
2.03188e-15
-2.90829e-16
1.13698e-15
1.71974e-15
4.03357e-15
4.26936e-15
1.01838e-15
1.58274e-15
3.67789e-15
-8.48554e-17
1.8018e-15
8.80041e-16
-9.98491e-16
-8.01979e-16
-2.40001e-16
5.79479e-16
3.60844e-15
4.05493e-15
5.57441e-16
-1.00198e-15
2.34794e-15
4.44463e-15
-2.26419e-15
2.9066e-15
-1.12895e-15
1.08102e-15
1.57961e-15
1.87072e-15
2.21226e-15
7.75607e-16
-3.31569e-16
7.52222e-16
8.90183e-16
-4.2952e-16
1.81277e-15
1.75837e-15
-1.53044e-15
2.68209e-15
1.68153e-16
1.76195e-15
1.03714e-15
-7.62294e-16
2.62718e-15
1.39309e-15
-2.66756e-15
-6.61919e-16
-2.75656e-16
-1.29848e-17
1.26374e-15
-3.47939e-17
3.1247e-16
1.6377e-15
3.50978e-15
-8.90636e-16
-1.85285e-15
2.08022e-16
1.08628e-15
2.17655e-15
-2.28707e-15
2.21322e-15
9.88791e-16
2.93054e-15
-1.52125e-15
-1.91502e-16
2.27002e-15
1.68086e-15
2.97435e-15
4.08992e-16
-1.17942e-15
2.13348e-16
5.35803e-16
1.70793e-15
2.31281e-15
-2.3111e-15
1.46e-15
2.02602e-15
1.21904e-17
1.1361e-15
3.57774e-15
2.06695e-15
2.28355e-15
-1.85303e-16
-5.63968e-16
3.14682e-17
3.50508e-15
1.20423e-15
7.44944e-16
1.12832e-15
1.61218e-15
3.97437e-15
1.99462e-15
1.58185e-15
2.44761e-15
-4.37222e-16
-1.33335e-15
1.59894e-15
-2.21111e-17
-5.10252e-17
7.47524e-16
-8.74091e-16
1.34929e-15
1.95512e-15
-1.10981e-15
-2.32141e-16
-2.20543e-15
3.17222e-15
1.27239e-16
1.97887e-15
-9.89988e-16
2.18404e-15
-2.39097e-15
5.48126e-16
6.83679e-16
3.0379e-15
2.20628e-15
3.49705e-15
4.20934e-15
2.02135e-15
2.90331e-15
1.80237e-15
-1.88806e-15
1.23469e-15
2.97579e-15
7.20831e-17
-2.26553e-16
9.42027e-16
2.51125e-16
-1.90486e-15
2.10541e-15
6.11923e-16
2.71623e-15
3.08135e-15
2.8368e-16
5.43127e-16
-2.3765e-15
5.0793e-16
-9.08031e-17
9.82027e-16
1.6987e-15
-5.6039e-17
-6.13743e-16
3.12701e-15
2.68871e-15
3.26837e-15
2.32548e-15
6.09016e-16
-1.01142e-15
1.55134e-15
-4.39405e-16
2.37827e-16
1.33227e-15
-3.25067e-16
1.34495e-15
3.14181e-15
2.83027e-15
-1.5452e-15
6.48718e-16
9.81945e-16
-9.22708e-16
-2.62441e-16
2.29455e-15
3.24302e-15
1.50854e-15
2.08096e-15
8.13968e-16
-1.83224e-16
-4.5594e-16
2.27308e-15
-8.4662e-17
3.10726e-15
1.66673e-15
2.96075e-15
-4.4557e-16
-5.42931e-16
-2.42095e-15
-1.98735e-17
1.4906e-15
1.89955e-15
2.04036e-15
9.75697e-16
-4.61365e-16
-1.6157e-15
1.52684e-15
9.67833e-16
7.36586e-16
3.30596e-15
1.86972e-15
-1.4317e-15
3.59629e-15
3.66052e-15
-5.82098e-16
2.69478e-15
2.61044e-15
2.46453e-15
2.55835e-15
1.67865e-16
-5.6459e-18
2.89124e-15
1.16219e-15
3.75528e-16
3.81756e-15
-4.39319e-16
2.4478e-15
1.81115e-15
1.97986e-16
-2.98894e-16
-1.6668e-16
2.31744e-15
1.70657e-15
7.89305e-16
2.3171e-16
1.47839e-16
1.05239e-15
4.00696e-15
-2.12296e-15
1.01352e-15
-1.53741e-15
8.35178e-16
-1.4045e-15
-1.25682e-15
-5.19605e-16
-7.73657e-16
-2.34195e-15
2.52191e-15
1.09423e-15
1.19551e-15
-1.42494e-15
-5.09687e-16
2.53787e-15
-2.01564e-15
-1.21721e-16
1.16946e-16
-1.20762e-15
9.54908e-16
2.13697e-15
2.53158e-15
-1.37778e-15
-1.54662e-15
2.78005e-15
2.2283e-15
-1.63866e-15
3.1153e-15
5.02421e-16
2.65415e-15
6.48426e-16
-1.23078e-15
-2.15608e-15
3.22255e-15
-1.4019e-15
8.6424e-16
-2.7995e-17
-1.78294e-15
-2.39735e-15
-1.05275e-15
3.62397e-15
2.93134e-16
9.85567e-16
2.13601e-15
1.52271e-15
5.6431e-16
-6.74199e-17
-1.77534e-15
2.91371e-15
1.18017e-15
-6.33056e-16
1.58143e-15
-7.17286e-16
-6.17132e-16
-6.25446e-16
-2.3777e-15
3.40367e-15
2.76555e-15
1.45781e-15
1.39896e-15
3.04654e-15
-1.68977e-15
-3.72982e-16
3.00397e-15
4.03582e-15
5.13119e-16
1.56295e-16
2.62979e-16
-3.08967e-16
3.83592e-15
1.51392e-15
-3.2077e-17
3.08998e-15
2.19312e-15
-1.16417e-15
-2.88981e-16
4.93402e-16
-1.13982e-15
1.70702e-15
-1.81519e-15
1.66782e-15
-2.49383e-15
-4.45889e-16
-2.36813e-15
2.99823e-15
7.69602e-16
-6.39215e-16
2.65582e-15
-1.48432e-15
5.93276e-17
2.62574e-15
2.60379e-15
-1.31088e-15
-2.91092e-16
2.64694e-15
6.56631e-16
-2.27618e-16
-1.92996e-15
1.23776e-15
-2.50468e-15
1.98823e-15
3.7378e-16
1.30566e-15
7.87135e-16
-1.18943e-15
-1.30228e-15
8.185e-16
-1.0709e-15
1.15242e-16
-5.96144e-16
4.3266e-15
1.06473e-15
-9.68754e-16
-2.07646e-15
7.99192e-16
2.60096e-15
2.91664e-15
1.25974e-15
3.20614e-15
-4.52474e-17
1.07852e-15
9.35754e-16
1.3655e-15
2.21413e-15
1.20601e-15
1.39716e-15
3.23628e-15
-4.38528e-16
2.35074e-15
-3.34773e-16
1.83842e-16
2.33536e-16
-9.77884e-16
-7.94801e-16
2.443e-15
1.06743e-15
-1.58125e-15
3.09742e-15
1.9409e-15
2.12147e-15
9.99273e-16
8.09121e-16
7.80219e-16
-7.82017e-17
2.31332e-15
-9.61357e-16
1.30643e-16
1.2146e-15
-1.63393e-15
-1.4059e-16
2.35241e-16
5.06341e-16
6.85787e-16
4.22204e-15
-9.52722e-17
-2.09221e-15
6.00332e-17
2.1641e-15
2.3769e-16
7.23238e-17
-9.42198e-16
2.50986e-15
2.04938e-15
4.05285e-15
1.46218e-15
3.25795e-15
3.5301e-15
1.78382e-16
9.80341e-16
1.18642e-15
3.75143e-15
7.23052e-16
2.87584e-15
3.98922e-15
1.8094e-15
1.16904e-15
1.71315e-15
-5.36125e-16
2.36658e-15
-1.39443e-15
1.78563e-15
3.08167e-15
2.72994e-15
2.21711e-15
-6.79183e-16
7.03371e-16
5.681e-16
1.53452e-15
-2.06168e-15
1.19757e-15
1.29917e-15
-2.41251e-16
-5.6681e-17
-4.55194e-16
-4.06125e-16
2.36025e-15
-2.17714e-15
2.54063e-16
-2.16627e-16
7.94955e-16
-1.40819e-15
2.5023e-15
-1.82488e-15
3.28255e-15
3.88503e-15
2.40008e-15
-1.98422e-16
3.42795e-15
3.9539e-16
1.96992e-15
3.52395e-15
-3.38678e-16
2.38965e-16
-2.2591e-15
2.09147e-16
-1.9945e-16
-2.00651e-15
3.65104e-15
1.66754e-15
1.42423e-15
2.70753e-15
2.7991e-15
-4.45197e-16
1.05924e-15
6.17851e-16
8.96836e-16
3.1845e-15
2.06132e-15
2.1197e-15
1.4829e-15
4.02209e-15
4.78989e-16
-8.66701e-17
1.68456e-15
9.61932e-16
-2.5672e-15
2.42303e-15
2.90957e-16
8.36682e-16
2.92753e-15
2.23708e-15
1.77508e-15
1.27116e-17
2.34162e-15
3.63417e-15
-1.51677e-15
-9.69039e-16
4.17475e-15
-3.3471e-16
1.48231e-15
-2.51213e-15
-1.71615e-15
1.85204e-16
1.91665e-15
6.13525e-16
-8.48154e-16
3.30076e-16
1.00995e-15
8.38634e-16
4.58512e-16
9.19841e-16
4.33067e-15
1.7187e-15
1.67533e-15
-9.28009e-16
4.33665e-16
2.46653e-15
2.21088e-15
3.0523e-15
6.45171e-16
2.86562e-15
1.47403e-15
2.08085e-15
-5.37873e-17
4.03977e-15
9.26251e-16
-1.08326e-15
1.64015e-15
2.44922e-16
-1.39045e-15
2.08784e-15
2.33365e-15
-9.90744e-16
8.83995e-16
2.61761e-15
7.97767e-16
1.78746e-15
-1.91091e-16
3.78069e-16
-4.07841e-16
3.00434e-15
-1.46689e-15
-1.15776e-15
3.30544e-15
3.18617e-15
1.56267e-15
7.15822e-17
-2.51007e-15
6.12655e-16
4.32534e-16
3.65647e-16
1.95106e-16
2.16536e-15
-1.2774e-15
8.43022e-17
3.41828e-15
7.37035e-16
-1.33713e-17
-7.82229e-16
3.16169e-15
-1.32214e-15
-2.0903e-15
-1.56492e-15
6.09601e-16
3.25971e-16
2.48716e-15
1.6474e-15
1.17876e-15
1.39965e-15
3.33823e-15
-2.21231e-15
4.30368e-16
1.54998e-15
2.31e-15
-1.75407e-15
-2.5314e-16
2.25106e-15
1.91933e-16
-3.67901e-16
2.17395e-15
2.81919e-15
2.29447e-15
3.23339e-15
2.40535e-15
1.76146e-15
-1.44821e-18
-2.21349e-15
-4.02978e-17
-1.91809e-15
1.14518e-15
3.17442e-15
3.35197e-16
-4.57345e-16
2.3459e-15
2.02555e-15
-1.64564e-16
-8.98721e-16
3.03011e-15
-3.54429e-16
1.84712e-15
3.2369e-16
3.16401e-15
2.63818e-15
-1.41035e-15
8.29784e-16
5.01853e-16
1.41162e-15
2.47343e-15
-2.7535e-16
1.74978e-15
1.2025e-15
3.95205e-15
4.78327e-16
1.15761e-15
9.71886e-16
-2.08404e-15
1.35651e-16
1.66812e-15
3.22924e-15
-3.44127e-16
-1.66859e-15
-6.74692e-16
3.34429e-15
3.0682e-15
-8.5333e-16
1.5297e-15
2.25353e-15
-1.09472e-16
1.19504e-15
1.93102e-15
1.61064e-15
1.89569e-15
1.66085e-16
1.72635e-15
8.06775e-16
2.80006e-16
3.01478e-15
9.57146e-16
1.50285e-15
3.50365e-16
1.56077e-16
-7.47994e-16
-3.78052e-16
3.07424e-15
1.89247e-15
7.93325e-16
1.74321e-15
-2.05524e-16
-8.79551e-16
-1.33424e-15
-1.41854e-15
6.51106e-16
2.59063e-15
2.02432e-15
3.86333e-15
1.10258e-15
1.01842e-15
3.51677e-15
1.61593e-15
8.09073e-16
2.29156e-15
5.262e-16
2.92464e-15
1.36167e-15
-4.01034e-17
1.3704e-15
6.03785e-16
2.52961e-15
1.72709e-15
2.01007e-15
-4.81315e-16
-8.60807e-16
-1.23434e-15
-6.83875e-16
2.29383e-15
1.24727e-15
2.56028e-15
-1.86744e-15
3.54954e-15
2.83311e-15
-3.23897e-16
7.07734e-16
-2.10542e-15
1.298e-15
-3.48722e-17
-1.24578e-15
2.59313e-15
4.09496e-16
5.16511e-16
-9.13882e-16
-8.59422e-16
-1.03672e-15
1.31409e-15
4.71087e-16
2.48262e-15
-2.38e-15
1.02373e-15
1.64776e-15
3.52035e-16
2.91665e-15
-1.29774e-15
-3.8464e-16
2.68365e-15
7.64835e-16
3.29152e-15
1.28307e-15
-3.79216e-16
1.77531e-15
1.10152e-15
2.39155e-15
2.34415e-15
3.55727e-15
-1.19572e-16
2.08677e-15
2.01569e-15
6.88495e-16
2.28922e-15
-2.77876e-16
1.97563e-15
1.16271e-15
2.83023e-16
8.81822e-16
-2.2647e-15
-1.11058e-16
2.12074e-15
3.97633e-16
1.04456e-15
-1.4051e-15
-3.43808e-16
2.6199e-17
1.49358e-15
-1.83096e-15
2.88636e-15
-7.23584e-16
1.96383e-15
-4.0567e-16
1.659e-15
4.09123e-17
5.92105e-16
-1.01754e-15
-2.25944e-15
-2.92556e-16
-1.59181e-15
-1.96996e-15
3.22633e-15
-1.50916e-15
-1.15021e-15
1.1352e-15
3.68555e-16
1.65721e-16
3.44724e-15
1.0693e-15
-1.02176e-15
3.11836e-15
1.00289e-15
6.2543e-16
-1.87075e-16
-5.20318e-16
-1.21534e-15
2.00979e-15
-1.50829e-15
2.02121e-15
1.15735e-15
1.42893e-15
2.10165e-15
-2.4862e-15
2.66118e-15
1.10024e-15
2.32358e-15
-1.15309e-15
2.36699e-15
5.51385e-16
1.29266e-15
3.62928e-15
1.3657e-15
-6.89052e-16
4.3205e-15
-5.16699e-16
5.65711e-16
1.91787e-15
2.22058e-15
3.10668e-15
-7.18313e-16
1.71182e-16
2.13446e-15
1.31147e-15
-1.39502e-15
4.77605e-17
1.76751e-15
-1.21817e-15
-1.26358e-15
-1.67174e-15
4.05366e-15
2.50961e-15
-2.33975e-15
1.47513e-15
-3.83415e-16
5.10133e-16
3.20897e-16
7.22974e-16
7.73893e-16
3.34738e-15
2.99983e-15
3.35215e-15
2.00474e-15
2.1975e-15
-1.81405e-16
-3.9924e-16
2.0125e-15
2.60585e-15
5.5963e-16
1.50981e-15
2.3328e-15
-5.72723e-16
-8.82649e-16
-2.33669e-16
3.60931e-15
-8.94411e-16
-1.17181e-15
-9.84484e-16
2.0748e-15
2.37062e-15
8.16362e-16
-3.03415e-16
1.36012e-15
-3.98398e-16
-4.02818e-16
1.11444e-15
-3.17547e-16
4.23072e-16
1.82148e-15
7.85268e-16
2.72859e-15
1.43264e-16
-6.39742e-16
-7.08728e-16
1.52312e-15
-2.40276e-15
2.90791e-15
-1.38403e-15
9.54091e-16
4.31074e-15
7.70818e-16
3.38007e-15
2.91966e-15
-1.33453e-15
-1.48085e-15
1.9731e-16
2.71594e-15
2.11062e-15
-4.27018e-16
1.46468e-15
-1.49805e-15
6.90316e-16
1.22722e-15
-1.65875e-16
1.37479e-16
-1.61052e-17
2.09545e-15
-9.61649e-16
-5.99913e-16
-1.25774e-15
2.46732e-15
-1.49674e-15
1.01289e-15
1.78359e-15
1.68012e-15
1.40575e-15
2.75412e-15
3.91657e-15
1.86439e-15
1.66868e-15
-1.72171e-15
-8.15458e-16
5.96426e-16
2.59628e-15
6.97561e-17
-8.90955e-17
2.41025e-16
2.23445e-15
-2.51564e-15
4.23305e-15
-8.01024e-17
-6.45971e-16
3.38664e-15
2.38095e-15
-2.47445e-15
3.33883e-15
4.19538e-15
-4.11169e-16
2.58586e-15
-1.96218e-15
7.99472e-16
1.62964e-15
1.47506e-15
-1.85213e-16
1.88292e-15
2.18613e-15
3.52133e-15
6.45438e-16
1.78913e-15
9.05279e-16
2.20938e-15
2.21219e-15
2.89822e-15
5.97543e-17
1.95315e-15
2.07219e-15
1.99604e-15
3.03371e-15
6.04709e-16
-1.18226e-15
-4.78878e-16
1.82263e-15
1.82984e-15
2.77031e-15
-1.46379e-15
2.89228e-15
8.67159e-16
1.8719e-15
3.19724e-15
-8.37688e-16
2.27537e-15
1.16603e-15
4.99322e-16
1.14367e-15
-2.55873e-15
-2.2408e-15
-2.49612e-15
-5.95791e-16
5.33881e-16
1.17901e-16
6.02443e-16
2.65472e-15
1.44529e-15
9.85549e-16
1.66717e-15
8.03877e-16
-1.77255e-15
-5.2234e-16
-1.92845e-15
1.60643e-15
2.22947e-15
1.91422e-15
5.46189e-16
1.73068e-15
-7.54812e-16
1.09522e-15
1.62441e-15
1.87252e-15
-4.07011e-17
7.5244e-16
2.07546e-15
2.80802e-15
1.55659e-16
3.70869e-16
-2.51989e-17
3.89663e-15
5.14916e-16
-5.76414e-16
-2.26736e-16
1.54756e-15
3.51583e-16
1.74658e-15
-2.41393e-15
1.92746e-15
9.03459e-17
2.0995e-15
4.27075e-15
1.72225e-15
1.38234e-15
-4.60043e-16
3.96505e-15
-1.52512e-15
1.72216e-15
1.59021e-15
-1.09477e-15
-1.37668e-16
2.68069e-15
2.36847e-15
1.03051e-15
-1.62359e-16
-1.14935e-15
9.67087e-16
-6.4257e-16
-1.1128e-15
1.73515e-15
1.49912e-15
1.17025e-15
6.79262e-16
-5.57252e-17
-1.86518e-16
-1.44587e-15
-1.9731e-15
-6.42294e-16
2.47918e-15
5.93433e-16
-1.54426e-15
2.41512e-15
1.71598e-15
3.13761e-15
-1.37386e-15
-2.22557e-16
3.05411e-15
2.75659e-15
7.06451e-16
1.62283e-15
1.95298e-15
-1.06107e-15
2.10762e-15
2.61596e-15
2.93306e-15
-2.44405e-15
1.1334e-15
1.91704e-15
4.10143e-15
1.78154e-15
5.00061e-16
1.37062e-15
-5.54982e-16
-3.99992e-16
-4.65978e-16
2.90486e-15
1.4823e-15
1.22131e-15
2.73097e-15
2.65433e-15
-6.86854e-16
7.25857e-16
-6.37365e-16
-4.75979e-16
3.09326e-15
1.69632e-15
1.44878e-15
-1.94085e-15
1.15028e-15
2.45869e-15
2.54717e-16
2.75923e-15
5.19882e-16
4.22145e-15
2.20421e-15
2.72455e-16
-1.88795e-16
7.50849e-16
1.17889e-15
-1.01867e-15
-2.21736e-15
8.69262e-16
8.49549e-16
-2.16801e-15
2.28469e-15
2.84641e-15
-3.6876e-16
2.22047e-15
3.91816e-16
-2.18889e-16
2.15174e-15
4.23404e-15
1.05859e-15
1.16464e-15
-2.26225e-15
-3.64694e-16
1.74641e-15
1.5857e-15
-4.15028e-16
-1.19849e-15
1.39759e-15
7.60012e-16
2.29301e-16
2.33546e-16
2.40151e-15
-8.62716e-16
-1.10398e-15
7.82941e-16
-6.1839e-16
-3.30422e-17
2.27461e-15
1.53831e-15
-3.40396e-16
7.99337e-16
8.37437e-16
-7.37617e-16
7.92098e-16
3.18799e-15
2.26312e-15
-9.68425e-16
4.31466e-15
4.77984e-16
3.46495e-15
1.44309e-15
1.16413e-15
5.38622e-16
1.14803e-15
2.51529e-15
2.08135e-15
9.18443e-16
-1.01604e-15
5.99373e-16
5.92469e-16
6.68337e-16
3.02007e-15
2.4761e-15
-1.01809e-15
1.06043e-15
3.06618e-15
4.02384e-15
-1.51368e-15
2.65149e-15
1.63283e-15
-8.05379e-16
-3.01311e-16
1.74356e-16
1.96775e-15
1.13903e-15
-1.18144e-15
3.46357e-15
-5.42593e-17
2.31471e-17
4.81863e-16
1.5372e-15
-5.81818e-16
5.09444e-16
-1.76754e-15
9.11812e-16
-1.05997e-15
-1.60706e-15
2.47497e-15
2.27919e-15
1.71715e-16
-1.32066e-15
-2.70356e-16
1.26507e-15
-2.31608e-15
-3.60929e-16
-2.3607e-16
-3.77469e-16
2.0493e-15
2.08939e-15
3.24239e-15
2.92811e-16
3.47086e-15
1.86564e-15
-2.36623e-16
-1.55491e-16
3.30042e-15
5.1136e-16
2.5478e-16
-1.21986e-15
-8.15915e-16
4.17112e-16
1.69836e-15
2.09516e-15
4.57047e-16
-1.02743e-15
-5.58391e-16
3.27138e-15
5.22548e-16
2.25618e-15
1.69267e-15
2.31865e-15
3.81227e-16
1.05073e-15
2.69598e-15
6.26227e-16
1.69738e-15
2.49578e-15
3.69536e-15
-8.68837e-16
1.33254e-15
1.09418e-15
-7.71367e-16
9.75255e-16
-8.05547e-16
-6.19748e-16
-1.02741e-15
2.98115e-17
1.51804e-15
9.66649e-16
-2.60668e-16
2.3204e-15
3.11378e-15
-2.02511e-15
1.30281e-15
1.2799e-15
1.19691e-15
2.88774e-15
-1.67617e-15
2.56597e-15
2.13543e-15
-1.11593e-15
2.31526e-15
-1.41149e-15
4.28241e-15
1.21095e-15
3.87754e-15
1.87376e-15
7.77037e-16
2.4619e-15
9.0112e-16
-2.10482e-15
-7.80634e-16
-1.35089e-15
3.42665e-15
9.50937e-16
6.14236e-16
-1.63831e-16
-2.02575e-15
2.62087e-17
-5.16898e-16
-3.58646e-16
-3.5907e-16
1.37081e-15
5.37607e-16
7.34391e-16
-1.73397e-15
1.68611e-15
-1.07388e-15
1.79901e-15
2.14929e-15
3.41627e-15
3.76541e-15
1.98818e-15
2.92133e-15
-1.10855e-15
9.61327e-16
-1.95718e-15
-2.16908e-16
3.9668e-15
5.10074e-16
1.59449e-15
-1.00363e-15
1.02941e-15
3.60698e-15
6.21349e-16
-1.07336e-15
-9.50307e-16
4.15672e-15
-1.03531e-15
3.08428e-15
2.12078e-15
2.14495e-15
1.75728e-16
5.5075e-16
8.08801e-16
-1.87764e-15
-1.91223e-15
1.46653e-15
-1.82244e-15
2.20176e-15
-3.1334e-16
4.77083e-16
1.8144e-15
1.5913e-15
1.38251e-15
1.80332e-15
2.18686e-15
1.45515e-15
3.65478e-15
2.59685e-15
2.36107e-15
1.345e-16
-9.16482e-16
-5.64612e-16
1.02213e-15
-1.22e-15
-9.68764e-16
-1.13074e-15
-1.586e-15
-5.80027e-16
4.82367e-16
-4.07422e-17
4.78598e-16
1.33205e-15
1.29744e-15
6.78131e-16
1.69878e-15
1.7024e-15
-4.6419e-16
1.8525e-15
5.00823e-16
3.58495e-15
7.55944e-16
2.10257e-15
1.1666e-15
6.94422e-16
-5.49913e-16
-1.36575e-15
2.06536e-15
-2.31807e-16
1.16354e-15
-4.15288e-16
9.42872e-16
6.6945e-16
2.20437e-17
-4.30057e-16
1.70259e-15
-2.09122e-15
1.43705e-15
2.51112e-15
9.95244e-16
5.05231e-16
9.15933e-16
4.09038e-15
8.42839e-16
-1.45161e-15
-2.54156e-15
-7.93042e-16
1.33259e-15
7.19191e-16
2.5406e-15
-2.36082e-15
5.2762e-16
-1.83313e-15
3.77589e-15
1.14168e-15
-1.37729e-15
1.80721e-15
-3.62079e-16
3.90997e-15
-2.42824e-15
2.98283e-15
2.98997e-15
-6.69663e-16
-2.41757e-15
8.71935e-16
2.78016e-15
-1.45523e-15
2.42844e-15
-1.0024e-15
1.91586e-15
2.27168e-15
7.41111e-16
-1.0967e-15
1.59505e-15
9.73511e-16
-2.05755e-15
-3.51084e-16
2.24546e-15
-1.51877e-15
-8.94447e-16
4.2021e-15
3.03347e-16
1.01093e-16
2.2751e-15
2.45072e-15
1.75483e-15
5.6532e-16
3.8322e-15
4.12419e-15
2.19633e-15
2.17018e-15
4.28086e-15
-5.5013e-16
3.91004e-15
8.87041e-16
-1.02514e-15
-3.73106e-18
1.78876e-15
2.4175e-15
4.16774e-15
4.01177e-15
-3.10917e-16
1.95674e-15
2.93341e-15
2.2038e-15
-7.59352e-16
-1.05869e-15
7.89888e-16
7.81852e-16
2.81416e-15
9.65331e-16
4.71391e-16
1.19399e-15
1.37699e-15
2.95766e-16
-2.23353e-17
1.08159e-15
2.2417e-15
5.87542e-16
4.26963e-15
1.14531e-15
-2.12537e-15
4.89827e-16
1.56819e-15
-4.71734e-16
1.39221e-15
2.26839e-15
5.63772e-17
-5.91062e-16
3.29296e-15
1.38087e-15
3.53969e-15
5.57298e-16
2.17421e-15
2.17119e-16
-1.53148e-16
-2.16689e-16
9.50323e-16
2.95938e-16
2.02805e-15
9.80763e-16
-1.83329e-15
7.70629e-16
-3.70671e-16
1.815e-15
9.4312e-16
-1.36177e-15
-2.56317e-15
-2.10267e-15
5.68629e-16
5.2392e-16
2.87018e-15
1.2501e-15
6.21391e-16
-9.01364e-16
3.27423e-15
3.52855e-15
1.65048e-15
1.99033e-15
1.07393e-15
7.48281e-16
-2.20512e-16
4.21347e-15
6.17478e-16
1.68005e-15
-1.91192e-15
1.42186e-15
-5.46149e-16
1.51151e-15
3.28558e-15
-1.15253e-15
-4.07593e-16
-2.9528e-16
1.31366e-15
-5.87192e-16
-2.41723e-15
7.45056e-16
-2.28241e-15
1.63906e-15
-3.73931e-16
-3.40153e-16
1.40335e-15
-6.5445e-16
1.00316e-15
1.75142e-15
1.14911e-15
4.64195e-16
6.74132e-17
1.63515e-15
-7.59574e-16
-9.68776e-16
1.01434e-15
1.87837e-15
-1.46283e-15
2.03203e-15
2.95996e-16
2.74273e-15
2.3386e-15
3.62973e-15
-1.0063e-15
4.26937e-15
3.18072e-15
8.08421e-16
6.06233e-16
-1.84459e-15
3.6745e-15
2.20059e-15
3.7195e-15
3.11323e-15
-1.16366e-15
4.12364e-15
4.13481e-15
3.76443e-15
-2.25996e-15
1.31412e-16
-2.08027e-15
1.332e-15
1.07382e-15
1.57518e-15
-2.43126e-16
4.26702e-16
2.5783e-15
9.91892e-16
2.5518e-15
-1.4331e-15
3.34885e-15
-4.37831e-16
-9.70684e-17
-1.04751e-15
-1.11473e-15
7.0326e-16
1.18605e-15
3.21823e-15
-5.27689e-16
4.10117e-15
7.18504e-16
-2.18134e-15
1.7924e-15
1.9131e-17
1.84855e-15
2.46601e-15
-2.95221e-16
2.74669e-15
2.45079e-15
2.05444e-15
1.51568e-15
3.07058e-16
-8.38059e-16
4.02257e-15
1.16373e-15
3.48088e-16
1.20855e-15
2.69512e-16
1.51893e-15
-2.42831e-15
1.73622e-15
8.57194e-16
2.83656e-15
1.02563e-15
-2.16661e-16
1.34327e-15
1.48195e-15
1.27485e-16
2.5855e-15
-7.55512e-16
1.37694e-15
-1.81082e-15
1.66493e-15
3.87664e-15
6.06283e-16
3.1059e-15
-5.98392e-16
-6.47186e-16
3.22548e-15
9.84008e-16
6.84886e-16
7.70669e-16
1.04016e-15
-2.5069e-15
2.26783e-15
1.12999e-15
3.88783e-15
2.74269e-15
2.47723e-15
3.7307e-15
1.87491e-15
-2.39464e-15
9.80676e-16
-1.14119e-15
8.60534e-16
1.20523e-15
-1.68386e-16
9.61531e-16
1.48924e-15
7.85748e-17
-9.23918e-16
-2.55186e-15
6.21428e-16
-1.60875e-15
1.99836e-15
2.24283e-17
2.02421e-15
-9.01459e-16
1.83333e-15
1.9456e-15
9.02099e-16
2.57429e-15
1.27594e-15
5.76565e-16
1.30959e-15
5.34927e-16
9.5429e-16
2.49968e-15
-2.48448e-15
-2.69479e-16
-1.39547e-15
2.31277e-15
2.05784e-15
-1.95686e-15
2.39468e-15
7.18507e-16
-1.23831e-15
1.49651e-15
1.97201e-15
2.32003e-15
2.05784e-15
1.49907e-16
2.51089e-15
7.52202e-17
4.26957e-15
7.25822e-16
1.63121e-15
5.72603e-16
-7.78002e-16
-6.58453e-16
3.2856e-15
3.70823e-15
4.41821e-16
3.24791e-15
2.11071e-15
5.83854e-16
-1.54143e-15
-6.9207e-16
7.78632e-16
2.9936e-15
4.01136e-15
3.36023e-15
7.81974e-16
2.83245e-15
-5.57414e-16
1.90956e-16
-4.11388e-16
9.0211e-16
-1.54539e-15
3.97766e-15
-1.56774e-15
7.52577e-17
-5.05167e-16
3.70824e-15
-1.06259e-15
-4.00205e-16
3.13568e-15
1.10428e-15
2.35085e-15
-4.03608e-17
-2.01156e-18
1.71177e-15
4.27197e-15
2.21533e-15
2.20288e-15
-1.04991e-16
-2.00782e-15
9.62755e-16
1.40288e-15
1.95142e-15
4.28494e-16
-9.77249e-16
1.70095e-15
-9.37539e-16
-4.20495e-16
7.46426e-16
1.57158e-15
1.30147e-15
-2.18706e-15
2.02667e-15
3.13924e-15
5.3279e-16
3.56037e-15
-1.10866e-15
-2.99234e-18
2.22887e-18
9.85635e-18
-5.20576e-18
4.25933e-18
-7.64162e-18
6.08131e-18
2.49277e-18
6.49698e-18
-3.15289e-18
3.00017e-19
-4.37043e-18
-8.32441e-18
8.43964e-18
-1.03157e-17
4.21336e-18
-2.41643e-18
-7.72343e-18
2.56363e-18
-3.60878e-18
7.22077e-18
3.13611e-18
-3.45443e-19
-2.93639e-18
4.44268e-18
2.51423e-18
-2.83208e-38
1.1327e-37
0
4.09933e-43
4.59666e-43
-4.32793e-37
2.16397e-37
2.83171e-38
-8.92892e-43
-4.32793e-37
8.08951e-37
4.32793e-37
-3.76157e-37
4.32793e-37
-3.76158e-37
9.01768e-43
-9.05529e-43
9.1001e-43
-2.16396e-37
-8.65586e-37
-1.88079e-37
3.76157e-37
-7.38219e-42
1.95771e-36
1.21929e-40
-3.46239e-36
0
0
0
0
0
0
0
0
0
0
0
0
0
0
0
0
0
0
0
0
0
0
0
0
0
0
0
0
0
0
0
0
0
0
0
0
0
0
0
0
0
0
0
0
0
0
0
0
0
0
0
0
0
0
0
0
0
0
0
0
0
0
0