/*--------------------------------*- C++ -*----------------------------------*\
  =========                 |
  \\      /  F ield         | OpenFOAM: The Open Source CFD Toolbox
   \\    /   O peration     | Website:  https://openfoam.org
    \\  /    A nd           | Version:  7
     \\/     M anipulation  |
\*---------------------------------------------------------------------------*/
FoamFile
{
    version     2.0;
    format      ascii;
    class       volScalarField;
    location    "0.01";
    object      drag.betaMicro;
}
// * * * * * * * * * * * * * * * * * * * * * * * * * * * * * * * * * * * * * //

dimensions      [1 -3 -1 0 0 0 0];

internalField   nonuniform List<scalar> 
10790
(
78841.1
79236.3
79608.9
79905.5
80174.4
80478.6
80858.1
81288.9
81657.2
82106.5
82048.5
84735.7
92401.6
539778
567677
566847
566640
566464
566440
566431
566422
566405
566386
566376
566364
566403
79148.4
79386.4
79683.9
79947
80211.7
80532.3
80933.4
81422.5
81993.2
82546.4
82723.3
80882.3
88208.7
576859
598926
598862
598831
598758
598754
598764
598749
598751
598759
598720
598888
598542
79392.9
79557.8
79789.4
80017.7
80261.4
80536.1
80810.6
81117.1
81646.9
82254.6
82407.5
82428.3
83837.1
583846
598910
598870
598834
598781
598766
598770
598769
598751
598778
598743
598884
598774
79608.9
79724
79903.5
80097.8
80343.3
80656.4
80966
81153.8
81278
81699.8
81889.8
82109.5
82463
586921
598893
598863
598837
598814
598816
598811
598815
598830
598827
598819
598879
598842
79788.7
79863.8
79996
80122.6
80284.3
80525.7
80879.5
81275.4
81414.9
81460
81512.7
81808.5
81814.9
589281
598880
598862
598848
598827
598824
598812
598801
598814
598838
598819
598882
598842
79942
80003.1
80117.9
80227.9
80341.3
80466.1
80667.1
81044.1
81394.8
81465.3
81408.1
81310.8
81391.1
591924
598870
598855
598860
598856
598851
598846
598832
598837
598854
598852
598873
598861
80045.9
80117
80218.4
80355.2
80502.1
80616.9
80710.8
80916.3
81270.2
81439.6
81362.1
80667.4
81124.8
594353
598850
598850
598857
598861
598865
598868
598866
598865
598873
598880
598880
598881
80093
80160.1
80219.6
80355
80532
80682.9
80751.6
80828.8
81085.5
81334
81381
80035.6
81126.1
596627
598749
598834
598854
598855
598863
598868
598872
598877
598879
598882
598884
598884
80150.9
80182.1
80199.6
80297.9
80462
80640.8
80748.7
80809.9
80991.8
81258.3
81461.4
82332.8
81495.4
598652
598832
598841
598848
598856
598864
598872
598878
598881
598885
598886
598887
598887
80241.2
80234.5
80249.1
80311.5
80433.6
80599.5
80734.5
80819.3
80959
81185.7
81493.8
82059.3
82614.7
577144
598558
596442
594309
592247
590561
589447
588444
587574
586943
586479
586201
586292
80290.2
80276.4
80320.6
80361.7
80434
80558.4
80689.7
80786.9
80894.2
81048.9
81256.1
81557.3
80393.8
81216.4
79944
80158.3
80360.6
80528.6
80690.9
80930.9
81214.4
81447.7
81626
81751.6
81816.9
81851.7
80256.2
80268.9
80344.7
80376
80405.3
80480.7
80590.1
80686.3
80769.4
80866.5
80978.5
81071.2
81047.8
79985.4
80419.4
80916.1
81108.1
81300.6
81487.8
81649.1
81794.8
81921.1
82023.4
82099.3
82126.2
82152
80183.1
80230.7
80314.8
80339
80341.2
80377.3
80458.6
80542.5
80606.6
80680.9
80737.9
80755.7
80653.9
80433.6
80229.2
80069.7
79921.7
79783.6
79664
79579.7
79529.8
79508.8
79502.9
79499
79503.3
79500.5
80134.5
80202.9
80268.2
80282.7
80274.5
80290.7
80350.7
80418.9
80465.3
80529
80568
80571.7
80501.2
80374.8
80232
80104.6
79990.7
79896
79826.3
79784.3
79770.8
79767.8
79767.7
79783.1
79769
79774.5
80135.4
80198.2
80231.1
80235
80226.4
80237.5
80286.5
80342.2
80372.7
80404.9
80421
80401.7
80339.7
80237.9
80128.9
80020.2
79918.8
79828.6
79760.9
79720.7
79709.7
79715.4
79719.5
79739.4
79747.9
79750.4
80159.8
80196
80202
80199.7
80193.7
80203.2
80244.1
80291.5
80317.7
80325.1
80325.7
80301.7
80253.8
80178.2
80090
79997.7
79907.2
79826.9
79763.7
79727.1
79713.3
79717.8
79728.6
79731.8
79731.9
79730
80160.7
80170.9
80166.7
80167.8
80168.3
80176.3
80206.8
80245.7
80274.9
80280.8
80275.4
80251
80209.1
80147.1
80073.5
79996.3
79921.8
79855.5
79801.5
79759.3
79732.7
79717
79716.8
79713.8
79710.7
79708.1
80117.6
80113.6
80112.9
80125.3
80138
80147.6
80165
80186.5
80202.3
80198.7
80180.2
80146.4
80099.6
80040.5
79975.4
79911.5
79854.2
79806.1
79769.1
79739.7
79715.9
79699.9
79695.9
79693.5
79691.6
79689.4
80041
80034.9
80040.8
80063.8
80090.1
80106.6
80116.3
80122.3
80120.9
80104.8
80075.1
80033.8
79984.3
79929.1
79872.9
79821.2
79778.2
79746.4
79725.4
79710.4
79696.1
79684
79679.6
79677.7
79676
79673.1
79960.3
79957.8
79965.5
79991
80024
80047.8
80057.4
80057.3
80047.7
80027
79995.9
79957.3
79914.2
79869.1
79824.5
79783.4
79748.4
79722.1
79705.1
79694.5
79684.3
79673.8
79667.4
79663.7
79660.5
79656.3
79903
79903.7
79907.9
79927.2
79955.6
79978.7
79988.3
79986.4
79975.4
79956.3
79930.5
79900.5
79868.5
79836
79803.7
79772.3
79742.8
79717.4
79698.1
79684.6
79673
79661.3
79652.5
79646.5
79641.9
79636.9
79876.2
79878.4
79878.7
79888.3
79904.5
79918.2
79922.3
79917.1
79904.9
79887.7
79866.7
79843.7
79820.2
79796.8
79773.7
79750.3
79726.2
79702.6
79682
79665.8
79652.6
79640.6
79631
79624.2
79619.2
79613.9
79866.4
79869.8
79869.1
79871.1
79874.4
79875.5
79870.4
79859.3
79844
79826.2
79806.7
79786.4
79766.1
79746.6
79728
79709.5
79690.3
79670.4
79651.5
79635.6
79622.8
79611.9
79603.2
79597.1
79592.7
79587.9
79855.9
79860.8
79861.7
79859.6
79853.8
79844.5
79831.1
79814.1
79795.1
79775.6
79755.6
79735.4
79715.5
79696.6
79679.1
79662.7
79646.6
79630.3
79614.5
79600.5
79589.2
79580
79572.8
79567.7
79563.9
79559.6
79834.7
79841
79843.4
79839.3
79828.8
79813.8
79795.5
79775.4
79754.6
79734
79713.7
79693.5
79673.7
79654.6
79636.7
79620.5
79605.7
79591.7
79578.4
79566.4
79556.3
79548.2
79541.9
79537.2
79533.3
79529.1
79801.1
79808
79809.8
79803.9
79791.3
79774.4
79755
79734.7
79714.6
79694.8
79675.4
79656.2
79637
79618.3
79600.7
79584.3
79569.5
79556.2
79543.8
79532.7
79523.2
79515.4
79509.2
79504.4
79500.2
79496
79757.5
79763.7
79762.5
79754.3
79740.7
79723.8
79705.5
79687
79668.9
79651.2
79633.9
79616.7
79599.6
79582.6
79565.9
79550
79535.2
79521.7
79509.4
79498.2
79488.4
79480.3
79473.7
79468.6
79464.5
79460.4
79707
79711.1
79705.9
79695.5
79681.5
79665.6
79649.2
79633
79617.2
79601.8
79586.7
79571.7
79556.9
79542
79527.3
79512.9
79499.1
79485.9
79473.6
79462.2
79452.2
79443.7
79436.8
79431.4
79427.1
79423.4
79651.2
79652.4
79644.3
79632.8
79619.3
79604.9
79590.6
79576.6
79562.9
79549.6
79536.4
79523.4
79510.3
79497.3
79484.1
79470.9
79458
79445.5
79433.7
79422.8
79413.1
79404.8
79398
79393.2
79389.2
79386.3
79590.7
79589.1
79580.2
79569.2
79557.3
79545.1
79533.1
79521.2
79509.4
79497.9
79486.4
79474.9
79463.4
79451.7
79439.8
79427.6
79415.4
79403.5
79392.2
79381.7
79372.4
79364.5
79358.3
79354.2
79351.6
79349.9
79526.2
79523
79515
79506
79496.7
79487.2
79477.7
79468
79458.3
79448.5
79438.7
79428.7
79418.5
79408
79397.2
79386.1
79374.8
79363.6
79352.9
79343
79334.3
79327.1
79321.6
79318.1
79316.6
79315.8
79459.9
79456.3
79450.5
79444.2
79437.8
79431.2
79424.3
79417.1
79409.5
79401.6
79393.6
79385.2
79376.4
79367.1
79357.4
79347.4
79337.2
79327.1
79317.4
79308.4
79300.5
79294
79289.3
79286.3
79285.5
79284.8
79394.9
79392
79388.5
79385
79381.3
79377.4
79373
79368.2
79362.8
79357
79350.7
79344
79336.6
79328.7
79320.3
79311.5
79302.5
79293.6
79285
79277.2
79270.3
79264.7
79260.6
79258.1
79257.5
79256.9
79334.3
79332.4
79330.9
79329.5
79328
79326.3
79324.1
79321.4
79318.2
79314.3
79309.7
79304.6
79298.7
79292.2
79285.1
79277.7
79270.1
79262.6
79255.4
79248.8
79243
79238.3
79234.8
79232.8
79232.2
79231.4
79279.9
79278.9
79278.7
79278.7
79278.7
79278.5
79278
79277
79275.5
79273.3
79270.3
79266.6
79262.1
79257
79251.4
79245.5
79239.4
79233.3
79227.5
79222.1
79217.5
79213.6
79210.8
79209.1
79208.4
79207.4
79232.1
79231.9
79232.4
79233.1
79233.9
79234.7
79235.2
79235.3
79235
79234
79232.2
79229.7
79226.6
79222.8
79218.6
79214.1
79209.5
79204.8
79200.4
79196.3
79192.7
79189.7
79187.4
79186
79185.3
79184
79190.9
79191.1
79191.8
79192.8
79194
79195.1
79196.1
79196.8
79197.1
79196.8
79195.8
79194.2
79192.1
79189.5
79186.6
79183.4
79180.1
79176.8
79173.6
79170.6
79167.9
79165.7
79164
79162.9
79162.3
79160.8
79155.3
79155.7
79156.4
79157.4
79158.6
79159.8
79160.9
79161.7
79162.1
79162
79161.5
79160.5
79159.1
79157.3
79155.4
79153.3
79151.1
79148.9
79146.8
79144.8
79143
79141.5
79140.3
79139.4
79138.9
79137.5
79124.3
79124.9
79125.5
79126.4
79127.4
79128.3
79129.1
79129.7
79129.9
79129.8
79129.4
79128.7
79127.8
79126.7
79125.5
79124.2
79122.8
79121.5
79120.2
79119
79117.8
79116.9
79116.1
79115.6
79115.2
79113.8
79096.9
79097.6
79098.1
79098.7
79099.4
79099.9
79100.3
79100.4
79100.3
79100.1
79099.6
79099
79098.4
79097.6
79096.8
79096.1
79095.3
79094.6
79093.9
79093.2
79092.6
79092
79091.6
79091.3
79091.1
79089.8
79072
79072.9
79073.2
79073.5
79073.7
79073.7
79073.6
79073.3
79072.9
79072.4
79071.8
79071.2
79070.7
79070.1
79069.6
79069.1
79068.6
79068.2
79067.9
79067.6
79067.3
79067.1
79066.9
79066.8
79066.7
79065.6
79048.9
79049.8
79049.9
79049.8
79049.6
79049.1
79048.6
79047.9
79047.2
79046.4
79045.7
79045.1
79044.5
79043.9
79043.5
79043.1
79042.8
79042.6
79042.4
79042.3
79042.2
79042.2
79042.2
79042.3
79042.3
79041.4
79026.7
79027.5
79027.3
79026.9
79026.3
79025.5
79024.6
79023.6
79022.7
79021.8
79021
79020.2
79019.5
79018.9
79018.5
79018.1
79017.8
79017.6
79017.5
79017.4
79017.5
79017.5
79017.6
79017.8
79017.9
79017.1
79004.6
79005.3
79004.8
79004.2
79003.3
79002.3
79001.3
79000.2
78999.2
78998.1
78997.2
78996.3
78995.5
78994.9
78994.3
78993.9
78993.5
78993.3
78993.1
78993
78993
78993.1
78993.3
78993.4
78993.6
78993
78982.2
78982.6
78982
78981.2
78980.3
78979.3
78978.3
78977.2
78976.1
78975.1
78974.1
78973.1
78972.3
78971.5
78970.8
78970.2
78969.8
78969.4
78969.2
78969
78969
78969
78969.1
78969.3
78969.5
78969
78959.3
78959.5
78958.8
78958.1
78957.2
78956.3
78955.3
78954.4
78953.3
78952.3
78951.3
78950.3
78949.3
78948.5
78947.7
78947
78946.4
78946
78945.6
78945.4
78945.2
78945.2
78945.3
78945.4
78945.6
78945.1
78935.9
78936
78935.4
78934.7
78934
78933.3
78932.5
78931.5
78930.6
78929.6
78928.6
78927.6
78926.6
78925.7
78924.8
78924
78923.3
78922.8
78922.3
78922
78921.7
78921.6
78921.6
78921.7
78922
78921.5
78912.5
78912.5
78912
78911.5
78911
78910.3
78909.6
78908.8
78907.9
78906.9
78905.9
78904.9
78903.9
78902.9
78902
78901.2
78900.4
78899.8
78899.2
78898.8
78898.5
78898.3
78898.2
78898.3
78898.5
78898.2
78889.3
78889.4
78889.1
78888.7
78888.2
78887.7
78887
78886.2
78885.3
78884.3
78883.4
78882.3
78881.3
78880.3
78879.4
78878.5
78877.7
78876.9
78876.3
78875.8
78875.4
78875.2
78875.1
78875.2
78875.4
78875.1
78866.8
78866.9
78866.7
78866.4
78865.9
78865.3
78864.6
78863.8
78862.9
78862
78861
78860
78858.9
78857.9
78857
78856
78855.2
78854.4
78853.7
78853.1
78852.7
78852.4
78852.3
78852.3
78852.5
78852.3
78844.9
78845.2
78844.9
78844.6
78844.1
78843.4
78842.7
78841.8
78840.9
78839.9
78838.9
78837.9
78836.9
78835.8
78834.8
78833.8
78832.9
78832.1
78831.4
78830.8
78830.3
78830
78829.8
78829.8
78830
78829.8
78823.6
78823.9
78823.6
78823.2
78822.6
78821.9
78821.1
78820.2
78819.2
78818.2
78817.2
78816.2
78815.1
78814
78813
78812
78811
78810.1
78809.4
78808.7
78808.2
78807.8
78807.7
78807.7
78807.9
78807.7
78802.5
78802.8
78802.5
78802
78801.3
78800.6
78799.7
78798.8
78797.8
78796.8
78795.8
78794.7
78793.6
78792.5
78791.4
78790.4
78789.4
78788.5
78787.7
78787
78786.4
78786.1
78785.9
78785.9
78786.1
78785.9
78781.5
78781.7
78781.3
78780.7
78780.1
78779.3
78778.5
78777.6
78776.6
78775.6
78774.5
78773.5
78772.4
78771.2
78770.1
78769.1
78768.1
78767.1
78766.3
78765.6
78765
78764.6
78764.4
78764.4
78764.7
78764.5
78760.4
78760.5
78760
78759.4
78758.8
78758
78757.2
78756.4
78755.4
78754.4
78753.4
78752.3
78751.2
78750.1
78749
78747.9
78746.9
78746
78745.2
78744.4
78743.9
78743.5
78743.4
78743.4
78743.6
78743.5
78739.1
78739
78738.5
78738
78737.4
78736.7
78736
78735.2
78734.3
78733.3
78732.3
78731.3
78730.2
78729.1
78728
78727
78726
78725.1
78724.3
78723.6
78723.1
78722.8
78722.7
78722.7
78723
78722.9
78717.7
78717.6
78717.1
78716.6
78716.1
78715.5
78714.8
78714
78713.2
78712.3
78711.3
78710.3
78709.3
78708.3
78707.3
78706.3
78705.4
78704.5
78703.8
78703.2
78702.8
78702.5
78702.4
78702.5
78702.8
78702.8
78696.5
78696.3
78695.8
78695.4
78694.9
78694.4
78693.8
78693.1
78692.3
78691.5
78690.6
78689.6
78688.7
78687.7
78686.8
78685.9
78685.1
78684.4
78683.7
78683.2
78682.9
78682.7
78682.7
78682.9
78683.2
78683.3
78675.6
78675.4
78675
78674.6
78674.1
78673.6
78673.1
78672.4
78671.7
78670.9
78670.1
78669.3
78668.4
78667.6
78666.8
78666
78665.3
78664.7
78664.2
78663.8
78663.6
78663.5
78663.6
78663.8
78664.2
78664.4
78655.2
78655
78654.6
78654.3
78653.9
78653.4
78652.8
78652.2
78651.6
78650.9
78650.2
78649.4
78648.7
78648
78647.3
78646.7
78646.1
78645.7
78645.3
78645.1
78645
78645
78645.2
78645.5
78645.9
78646.1
78635.5
78635.3
78634.9
78634.6
78634.2
78633.7
78633.2
78632.7
78632.1
78631.5
78630.9
78630.2
78629.6
78629.1
78628.5
78628.1
78627.7
78627.4
78627.2
78627.1
78627.1
78627.2
78627.5
78627.9
78628.4
78628.6
78616.5
78616.2
78615.9
78615.5
78615.2
78614.7
78614.3
78613.8
78613.3
78612.8
78612.2
78611.8
78611.3
78610.9
78610.5
78610.2
78610
78609.9
78609.8
78609.8
78610
78610.2
78610.5
78611
78611.5
78611.8
78598.1
78597.8
78597.5
78597.1
78596.8
78596.4
78596
78595.6
78595.2
78594.8
78594.4
78594.1
78593.8
78593.5
78593.3
78593.2
78593.1
78593.2
78593.2
78593.4
78593.6
78594
78594.4
78594.9
78595.5
78595.7
78580.3
78580
78579.7
78579.3
78579
78578.7
78578.4
78578.1
78577.8
78577.5
78577.3
78577.1
78577
78576.9
78576.9
78577
78577.1
78577.2
78577.5
78577.7
78578.1
78578.5
78579
78579.5
78580.1
78580.4
78563.1
78562.8
78562.4
78562.2
78561.9
78561.7
78561.4
78561.2
78561.1
78561
78561
78561
78561
78561.1
78561.3
78561.5
78561.7
78562.1
78562.4
78562.8
78563.2
78563.7
78564.2
78564.8
78565.4
78565.7
78546.5
78546.1
78545.8
78545.6
78545.4
78545.3
78545.2
78545.1
78545.1
78545.2
78545.3
78545.5
78545.8
78546
78546.4
78546.7
78547.1
78547.6
78548
78548.5
78549.1
78549.6
78550.2
78550.8
78551.4
78551.6
78530.6
78530.1
78529.9
78529.7
78529.6
78529.6
78529.6
78529.7
78529.9
78530.1
78530.4
78530.8
78531.2
78531.6
78532.1
78532.6
78533.2
78533.7
78534.3
78534.9
78535.5
78536.1
78536.7
78537.3
78537.9
78538.2
78515.3
78514.9
78514.6
78514.5
78514.5
78514.6
78514.8
78515
78515.4
78515.8
78516.2
78516.8
78517.3
78517.9
78518.6
78519.2
78519.9
78520.5
78521.2
78521.9
78522.6
78523.2
78523.9
78524.5
78525.1
78525.4
78500.8
78500.4
78500.2
78500.2
78500.3
78500.5
78500.8
78501.2
78501.6
78502.2
78502.8
78503.5
78504.2
78504.9
78505.7
78506.4
78507.2
78508
78508.7
78509.5
78510.2
78510.9
78511.6
78512.2
78512.9
78513.1
78487.3
78486.8
78486.7
78486.7
78486.9
78487.2
78487.6
78488.1
78488.7
78489.4
78490.1
78490.9
78491.7
78492.6
78493.4
78494.3
78495.2
78496
78496.8
78497.6
78498.4
78499.2
78499.9
78500.5
78501.2
78501.5
78474.6
78474.2
78474.1
78474.3
78474.5
78474.9
78475.4
78476
78476.7
78477.5
78478.3
78479.2
78480.1
78481
78481.9
78482.9
78483.8
78484.7
78485.6
78486.4
78487.2
78488
78488.8
78489.5
78490.1
78490.5
78463.1
78462.7
78462.6
78462.8
78463.1
78463.6
78464.2
78464.8
78465.6
78466.4
78467.3
78468.2
78469.2
78470.2
78471.2
78472.2
78473.1
78474.1
78475
78475.9
78476.7
78477.5
78478.3
78479
78479.7
78480
78452.6
78452.2
78452.3
78452.5
78452.8
78453.3
78453.9
78454.6
78455.4
78456.3
78457.2
78458.2
78459.2
78460.2
78461.2
78462.2
78463.2
78464.2
78465.1
78466
78466.9
78467.7
78468.5
78469.2
78469.9
78470.3
78443.3
78442.9
78443
78443.2
78443.6
78444.1
78444.8
78445.5
78446.3
78447.2
78448.1
78449
78450
78451
78452.1
78453.1
78454.1
78455
78456
78456.9
78457.7
78458.6
78459.3
78460.1
78460.8
78461.2
78435.1
78434.8
78434.9
78435.1
78435.5
78436
78436.6
78437.3
78438.1
78439
78439.9
78440.8
78441.8
78442.8
78443.7
78444.7
78445.7
78446.6
78447.6
78448.5
78449.3
78450.1
78450.9
78451.7
78452.4
78452.8
78427.9
78427.7
78427.8
78428
78428.4
78428.9
78429.5
78430.2
78430.9
78431.7
78432.6
78433.5
78434.4
78435.3
78436.3
78437.2
78438.1
78439.1
78440
78440.8
78441.7
78442.5
78443.2
78443.9
78444.6
78445.1
78421.8
78421.6
78421.7
78421.9
78422.3
78422.7
78423.3
78423.9
78424.6
78425.4
78426.2
78427
78427.9
78428.7
78429.6
78430.5
78431.4
78432.3
78433.1
78433.9
78434.7
78435.5
78436.2
78437
78437.6
78438
78416.6
78416.4
78416.5
78416.8
78417.1
78417.5
78418
78418.6
78419.2
78419.9
78420.6
78421.4
78422.2
78423
78423.8
78424.6
78425.4
78426.2
78427
78427.8
78428.5
78429.3
78430
78430.7
78431.3
78431.7
78412.3
78412.1
78412.2
78412.4
78412.7
78413.1
78413.5
78414
78414.6
78415.2
78415.8
78416.5
78417.2
78417.9
78418.7
78419.4
78420.2
78420.9
78421.6
78422.4
78423.1
78423.7
78424.4
78425.1
78425.7
78426.1
78408.7
78408.6
78408.7
78408.8
78409.1
78409.4
78409.8
78410.2
78410.7
78411.2
78411.8
78412.4
78413
78413.6
78414.3
78415
78415.6
78416.3
78416.9
78417.6
78418.2
78418.9
78419.5
78420.1
78420.7
78421.1
78405.7
78405.6
78405.7
78405.9
78406.1
78406.4
78406.7
78407
78407.5
78407.9
78408.4
78408.9
78409.4
78410
78410.6
78411.1
78411.7
78412.3
78412.9
78413.5
78414.1
78414.6
78415.2
78415.8
78416.3
78416.7
78403.3
78403.3
78403.4
78403.5
78403.7
78403.9
78404.1
78404.4
78404.8
78405.1
78405.6
78406
78406.4
78406.9
78407.4
78407.9
78408.4
78408.9
78409.4
78410
78410.5
78411
78411.5
78412
78412.5
78412.8
78401.4
78401.4
78401.4
78401.5
78401.7
78401.8
78402.1
78402.3
78402.6
78402.9
78403.2
78403.6
78403.9
78404.3
78404.7
78405.2
78405.6
78406
78406.5
78406.9
78407.4
78407.9
78408.3
78408.8
78409.2
78409.5
78399.9
78399.8
78399.9
78400
78400.1
78400.2
78400.4
78400.6
78400.8
78401
78401.3
78401.6
78401.9
78402.2
78402.5
78402.9
78403.3
78403.6
78404
78404.4
78404.8
78405.2
78405.6
78406
78406.4
78406.7
78398.6
78398.6
78398.6
78398.7
78398.8
78398.9
78399
78399.1
78399.3
78399.5
78399.7
78399.9
78400.2
78400.4
78400.7
78401
78401.3
78401.6
78401.9
78402.3
78402.6
78402.9
78403.3
78403.6
78404
78404.2
78397.6
78397.6
78397.6
78397.6
78397.7
78397.8
78397.8
78398
78398.1
78398.2
78398.4
78398.6
78398.8
78399
78399.2
78399.4
78399.7
78399.9
78400.2
78400.5
78400.8
78401.1
78401.4
78401.6
78402
78402.2
78396.7
78396.7
78396.7
78396.7
78396.8
78396.8
78396.9
78397
78397.1
78397.2
78397.3
78397.5
78397.6
78397.8
78397.9
78398.1
78398.3
78398.5
78398.8
78399
78399.2
78399.5
78399.7
78400
78400.2
78400.4
78396
78396
78396
78396
78396
78396.1
78396.1
78396.2
78396.2
78396.3
78396.4
78396.5
78396.6
78396.8
78396.9
78397.1
78397.2
78397.4
78397.6
78397.8
78398
78398.2
78398.4
78398.6
78398.8
78399
78395.4
78395.3
78395.3
78395.4
78395.4
78395.4
78395.4
78395.5
78395.5
78395.6
78395.7
78395.8
78395.8
78395.9
78396
78396.2
78396.3
78396.4
78396.6
78396.7
78396.9
78397.1
78397.2
78397.4
78397.6
78397.7
78394.8
78394.8
78394.8
78394.8
78394.8
78394.8
78394.9
78394.9
78394.9
78395
78395
78395.1
78395.2
78395.2
78395.3
78395.4
78395.5
78395.6
78395.7
78395.9
78396
78396.1
78396.3
78396.4
78396.6
78396.7
78394.3
78394.3
78394.3
78394.3
78394.3
78394.3
78394.3
78394.4
78394.4
78394.4
78394.5
78394.5
78394.6
78394.6
78394.7
78394.8
78394.9
78394.9
78395
78395.1
78395.2
78395.4
78395.5
78395.6
78395.7
78395.8
78393.9
78393.8
78393.8
78393.8
78393.9
78393.9
78393.9
78393.9
78393.9
78394
78394
78394
78394.1
78394.1
78394.2
78394.2
78394.3
78394.4
78394.4
78394.5
78394.6
78394.7
78394.8
78394.9
78395
78395.1
78393.5
78393.4
78393.4
78393.4
78393.4
78393.5
78393.5
78393.5
78393.5
78393.5
78393.6
78393.6
78393.6
78393.7
78393.7
78393.8
78393.8
78393.9
78393.9
78394
78394.1
78394.1
78394.2
78394.3
78394.4
78394.4
78393.1
78393.1
78393.1
78393.1
78393.1
78393.1
78393.1
78393.1
78393.1
78393.2
78393.2
78393.2
78393.2
78393.3
78393.3
78393.3
78393.4
78393.4
78393.5
78393.5
78393.6
78393.7
78393.7
78393.8
78393.9
78393.9
78392.8
78392.7
78392.7
78392.7
78392.7
78392.8
78392.8
78392.8
78392.8
78392.8
78392.8
78392.9
78392.9
78392.9
78392.9
78393
78393
78393.1
78393.1
78393.1
78393.2
78393.2
78393.3
78393.4
78393.4
78393.5
78392.5
78392.4
78392.4
78392.4
78392.4
78392.5
78392.5
78392.5
78392.5
78392.5
78392.5
78392.6
78392.6
78392.6
78392.6
78392.7
78392.7
78392.7
78392.8
78392.8
78392.8
78392.9
78392.9
78393
78393
78393.1
78392.2
78392.2
78392.2
78392.2
78392.2
78392.2
78392.2
78392.2
78392.2
78392.2
78392.3
78392.3
78392.3
78392.3
78392.3
78392.4
78392.4
78392.4
78392.5
78392.5
78392.5
78392.6
78392.6
78392.6
78392.7
78392.7
78391.9
78391.9
78391.9
78391.9
78391.9
78391.9
78392
78392
78392
78392
78392
78392
78392.1
78392.1
78392.1
78392.1
78392.1
78392.2
78392.2
78392.2
78392.3
78392.3
78392.3
78392.4
78392.4
78392.4
78391.7
78391.7
78391.7
78391.7
78391.7
78391.7
78391.7
78391.8
78391.8
78391.8
78391.8
78391.8
78391.8
78391.9
78391.9
78391.9
78391.9
78391.9
78392
78392
78392
78392.1
78392.1
78392.1
78392.1
78392.2
78391.5
78391.5
78391.5
78391.5
78391.5
78391.5
78391.6
78391.6
78391.6
78391.6
78391.6
78391.6
78391.6
78391.7
78391.7
78391.7
78391.7
78391.7
78391.8
78391.8
78391.8
78391.8
78391.9
78391.9
78391.9
78391.9
78391.4
78391.4
78391.4
78391.4
78391.4
78391.4
78391.4
78391.4
78391.4
78391.4
78391.4
78391.5
78391.5
78391.5
78391.5
78391.5
78391.5
78391.6
78391.6
78391.6
78391.6
78391.7
78391.7
78391.7
78391.7
78391.7
78391.2
78391.2
78391.2
78391.2
78391.2
78391.2
78391.3
78391.3
78391.3
78391.3
78391.3
78391.3
78391.3
78391.3
78391.4
78391.4
78391.4
78391.4
78391.4
78391.5
78391.5
78391.5
78391.5
78391.5
78391.6
78391.6
78391.1
78391.1
78391.1
78391.1
78391.1
78391.1
78391.1
78391.1
78391.1
78391.2
78391.2
78391.2
78391.2
78391.2
78391.2
78391.2
78391.3
78391.3
78391.3
78391.3
78391.3
78391.3
78391.4
78391.4
78391.4
78391.4
78391
78391
78391
78391
78391
78391
78391
78391
78391
78391.1
78391.1
78391.1
78391.1
78391.1
78391.1
78391.1
78391.1
78391.2
78391.2
78391.2
78391.2
78391.2
78391.2
78391.3
78391.3
78391.3
78390.9
78390.9
78390.9
78390.9
78390.9
78390.9
78390.9
78390.9
78391
78391
78391
78391
78391
78391
78391
78391
78391
78391.1
78391.1
78391.1
78391.1
78391.1
78391.1
78391.1
78391.2
78391.2
78390.8
78390.8
78390.8
78390.8
78390.9
78390.9
78390.9
78390.9
78390.9
78390.9
78390.9
78390.9
78390.9
78390.9
78390.9
78390.9
78391
78391
78391
78391
78391
78391
78391
78391
78391.1
78391.1
78390.8
78390.8
78390.8
78390.8
78390.8
78390.8
78390.8
78390.8
78390.8
78390.8
78390.8
78390.8
78390.8
78390.9
78390.9
78390.9
78390.9
78390.9
78390.9
78390.9
78390.9
78390.9
78391
78391.7
78391
78391
78390.7
78390.7
78390.7
78390.7
78390.7
78390.7
78390.7
78390.8
78390.8
78390.8
78390.8
78390.8
78390.8
78390.8
78390.8
78390.8
78390.8
78390.8
78390.8
78390.9
78390.9
78390.9
78390.9
78390.9
78390.9
78390.9
78390.7
78390.7
78390.7
78390.7
78390.7
78390.7
78390.7
78390.7
78390.7
78390.7
78390.7
78390.7
78390.7
78390.7
78390.8
78390.8
78390.8
78390.8
78390.8
78390.8
78390.8
78390.8
78390.8
78390.8
78390.8
78390.8
78390.7
78390.7
78390.7
78390.7
78390.7
78390.7
78390.7
78390.7
78390.7
78390.7
78390.7
78390.7
78390.7
78390.7
78390.7
78390.7
78390.7
78390.7
78390.7
78390.7
78390.8
78390.8
78390.8
78390.8
78390.8
78390.8
78390.6
78390.6
78390.6
78390.6
78390.6
78390.6
78390.6
78390.6
78390.7
78390.7
78390.7
78390.7
78390.7
78390.7
78390.7
78390.7
78390.7
78390.7
78390.7
78390.7
78390.7
78390.7
78390.7
78390.7
78390.7
78390.7
78390.6
78390.6
78390.6
78390.6
78390.6
78390.6
78390.6
78390.6
78390.6
78390.6
78390.6
78390.6
78390.6
78390.6
78390.7
78390.7
78390.7
78390.7
78390.7
78390.7
78390.7
78390.7
78390.7
78390.7
78390.7
78390.7
78390.6
78390.6
78390.6
78390.6
78390.6
78390.6
78390.7
78390.6
78390.6
78390.6
78390.6
78390.6
78390.6
78390.6
78390.6
78390.6
78390.6
78390.6
78390.6
78390.6
78390.7
78390.7
78390.7
78390.7
78390.7
78390.7
78390.6
78390.6
78390.6
78390.6
78390.6
78390.6
78390.6
78390.6
78390.6
78390.6
78390.6
78390.6
78390.6
78390.6
78390.6
78390.6
78390.6
78390.6
78390.6
78390.6
78390.6
78390.6
78390.6
78390.6
78390.6
78390.7
78390.6
78390.6
78390.6
78390.6
78390.6
78390.6
78390.6
78390.6
78390.6
78390.6
78390.6
78390.6
78390.6
78390.6
78390.6
78390.6
78390.6
78390.6
78390.6
78390.6
78390.6
78390.6
78390.6
78390.6
78390.6
78390.6
78390.6
78390.6
78390.6
78390.6
78390.6
78390.6
78390.6
78390.6
78390.6
78390.6
78390.6
78390.6
78390.6
78390.6
78390.6
78390.6
78390.6
78390.6
78390.6
78390.6
78390.6
78390.6
78390.6
78390.6
78390.6
78390.6
78390.6
78390.6
78390.6
78390.6
78390.6
78390.6
78390.6
78390.6
78390.6
78390.6
78390.6
78390.6
78390.6
78390.6
78390.6
78390.6
78390.6
78390.6
78390.7
78390.6
78390.6
78390.6
78390.6
78390.6
78390.6
78390.6
78390.6
78390.5
78390.6
78390.6
78390.6
78390.6
78390.6
78390.6
78390.6
78390.6
78390.6
78390.6
78390.6
78390.6
78390.6
78390.6
78390.6
78390.6
78390.6
78390.6
78390.6
78390.6
78390.6
78390.6
78390.6
78390.6
78390.5
78390.5
78390.5
78390.5
78390.5
78390.5
78390.5
78390.5
78390.5
78390.6
78390.6
78390.6
78390.6
78390.6
78390.6
78390.6
78390.6
78390.6
78390.6
78390.6
78390.6
78390.6
78390.6
78390.6
78390.6
78390.6
78390.5
78390.5
78390.5
78390.5
78390.5
78390.5
78390.5
78390.5
78390.5
78390.5
78390.5
78390.5
78390.5
78390.5
78390.6
78390.6
78390.6
78390.6
78390.6
78390.6
78390.6
78390.6
78390.6
78390.6
78390.6
78390.6
78390.5
78390.5
78390.5
78390.5
78390.5
78390.5
78390.5
78390.5
78390.5
78390.5
78390.5
78390.5
78390.5
78390.5
78390.5
78390.5
78390.5
78390.5
78390.6
78390.6
78390.6
78390.6
78390.6
78390.6
78390.6
78390.6
78390.5
78390.5
78390.5
78390.5
78390.5
78390.5
78390.5
78390.5
78390.5
78390.5
78390.5
78390.5
78390.5
78390.5
78390.5
78390.5
78390.5
78390.5
78390.5
78390.5
78390.5
78390.5
78390.6
78390.6
78390.6
78390.6
78390.5
78390.5
78390.5
78390.5
78390.5
78390.5
78390.5
78390.5
78390.5
78390.5
78390.5
78390.5
78390.5
78390.5
78390.5
78390.5
78390.5
78390.5
78390.5
78390.5
78390.5
78390.5
78390.5
78390.5
78390.5
78390.5
78390.5
78390.5
78390.5
78390.5
78390.5
78390.5
78390.5
78390.5
78390.5
78390.5
78390.5
78390.5
78390.5
78390.5
78390.5
78390.5
78390.5
78390.5
78390.5
78390.5
78390.5
78390.5
78390.5
78390.5
78390.5
78390.5
78390.5
78390.5
78390.5
78390.5
78390.5
78390.5
78390.5
78390.5
78390.5
78390.5
78390.5
78390.5
78390.5
78390.5
78390.5
78390.5
78390.5
78390.5
78390.5
78390.5
78390.5
78390.5
78390.5
78390.5
78390.5
78390.5
78390.5
78390.5
78390.5
78390.5
78390.5
78390.5
78390.5
78390.5
78390.5
78390.5
78390.5
78390.5
78390.5
78390.5
78390.5
78390.5
78390.5
78390.5
78390.5
78390.5
78390.5
78390.5
78390.5
78390.5
78390.5
78390.5
78390.5
78390.5
78390.5
78390.5
78390.5
78390.5
78390.5
78390.5
78390.5
78390.5
78390.5
78390.5
78390.5
78390.5
78390.5
78390.5
78390.5
78390.5
78390.5
78390.5
78390.5
78390.5
78390.5
78390.5
78390.5
78390.5
78390.5
78390.5
78390.5
78390.5
78390.5
78390.5
78390.5
78390.5
78390.5
78390.5
78390.5
78390.5
78390.5
78390.5
78390.5
78390.5
78390.5
78390.5
78390.5
78390.5
78390.5
78390.5
78390.5
78390.5
78390.5
78390.5
78390.5
78390.5
78390.5
78390.5
78390.5
78390.5
78390.5
78390.5
78390.5
78390.5
78390.5
78390.5
78390.5
78390.5
78390.5
78390.5
78390.5
78390.5
78390.5
78390.5
78390.5
78390.5
78390.5
78390.5
78390.5
78390.5
78390.5
78390.5
78390.5
78390.5
78390.5
78390.5
78390.5
78390.5
78390.5
78390.5
78390.5
78390.5
78390.5
78390.5
78390.5
78390.5
78390.5
78390.5
78390.5
78390.5
78390.5
78390.5
78390.5
78390.5
78390.5
78390.5
78390.5
78390.5
78390.5
78390.5
78390.5
78390.5
78390.5
78390.5
78390.5
78390.5
78390.5
78390.5
78390.5
78390.5
78390.5
78390.5
78390.5
78390.5
78390.5
78390.5
78390.5
78390.5
78390.5
78390.5
78390.5
78390.5
78390.5
78390.5
78390.5
78390.5
78390.5
78390.5
78390.5
78390.5
78390.5
78390.5
78390.5
78390.5
78390.5
78390.5
78390.5
78390.5
78390.5
78390.5
78390.5
78390.5
78390.5
78390.5
78390.5
78390.5
78390.5
78390.5
78390.5
78390.5
78390.5
78390.5
78390.5
78390.5
78390.5
78390.5
78390.5
78390.5
78390.5
78390.5
78390.5
78390.5
78390.5
78390.5
78390.5
78390.5
78390.5
78390.5
78390.5
78390.5
78390.5
78390.5
78390.5
78390.5
78390.5
78390.5
78390.5
78390.5
78390.5
78390.5
78390.5
78390.5
78390.5
78390.5
78390.5
78390.5
78390.5
78390.5
78390.5
78390.5
78390.5
78390.5
78390.5
78390.5
78390.5
78390.5
78390.5
78390.5
78390.5
78390.5
78390.5
78390.5
78390.5
78390.5
78390.5
78390.5
78390.5
78390.5
78390.5
78390.5
78390.5
78390.5
78390.5
78390.5
78390.5
78390.5
78390.5
78390.5
78390.5
78390.5
78390.5
78390.5
78390.5
78390.5
78390.5
78390.5
78390.5
78390.5
78390.5
78390.5
78390.5
78390.5
78390.5
78390.5
78390.5
78390.5
78390.5
78390.5
78390.5
78390.5
78390.5
78390.5
78390.5
78390.5
78390.5
78390.5
78390.5
78390.5
78390.5
78390.5
78390.5
78390.5
78390.5
78390.5
78390.5
78390.5
78390.5
78390.5
78390.5
78390.5
78390.5
78390.5
78390.5
78390.5
78390.5
78390.5
78390.5
78390.5
78390.5
78390.5
78390.5
78390.5
78390.5
78390.5
78390.5
78390.5
78390.5
78390.5
78390.5
78390.5
78390.5
78390.5
78390.5
78390.5
78390.5
78390.5
78390.5
78390.5
78390.5
78390.5
78390.5
78390.5
78390.5
78390.5
78390.5
78390.5
78390.5
78390.5
78390.5
78390.5
78390.5
78390.5
78390.5
78390.5
78390.5
78390.5
78390.5
78390.5
78390.5
78390.5
78390.5
78390.5
78390.5
78390.5
78390.5
78390.5
78390.5
78390.5
78390.5
78390.5
78390.5
78390.5
78390.5
78390.5
78390.5
78390.5
78390.5
78390.5
78390.5
78390.5
78390.5
78390.5
78390.5
78390.5
78390.5
78390.5
78390.5
78390.5
78390.5
78390.5
78390.5
78390.5
78390.5
78390.5
78390.5
78390.5
78390.5
78390.5
78390.5
78390.5
78390.5
78390.5
78390.5
78390.5
78390.5
78390.5
78390.5
78390.5
78390.5
78390.5
78390.5
78390.5
78390.5
78390.5
78390.5
78390.5
78390.5
78390.5
78390.5
78390.5
78390.5
78390.5
78390.5
78390.5
78390.5
78390.5
78390.5
78390.5
78390.5
78390.5
78390.5
78390.5
78390.5
78390.5
78390.5
78390.5
78390.5
78390.5
78390.5
78390.5
78390.5
78390.5
78390.5
78390.5
78390.5
78390.5
78390.5
78390.5
78390.5
78390.5
78390.5
78390.5
78390.5
78390.5
78390.5
78390.5
78390.5
78390.5
78390.5
78390.5
78390.5
78390.5
78390.5
78390.5
78390.5
78390.5
78390.5
78390.5
78390.5
78390.5
78390.5
78390.5
78390.5
78390.5
78390.5
78390.5
78390.5
78390.5
78390.5
78390.5
78390.5
78390.5
78390.5
78390.5
78390.5
78390.5
78390.5
78390.5
78390.5
78390.5
78390.5
78390.5
78390.5
78390.5
78390.5
78390.5
78390.5
78390.5
78390.5
78390.5
78390.5
78390.5
78390.5
78390.5
78390.5
78390.5
78390.5
78390.5
78390.5
78390.5
78390.5
78390.5