/*--------------------------------*- C++ -*----------------------------------*\
  =========                 |
  \\      /  F ield         | OpenFOAM: The Open Source CFD Toolbox
   \\    /   O peration     | Website:  https://openfoam.org
    \\  /    A nd           | Version:  7
     \\/     M anipulation  |
\*---------------------------------------------------------------------------*/
FoamFile
{
    version     2.0;
    format      ascii;
    class       volScalarField;
    location    "0.01";
    object      drag.betaMicro;
}
// * * * * * * * * * * * * * * * * * * * * * * * * * * * * * * * * * * * * * //

dimensions      [1 -3 -1 0 0 0 0];

internalField   nonuniform List<scalar> 
10790
(
564631
562761
570464
580787
568529
564833
566324
566615
566214
566101
566420
566817
567013
566882
566585
566361
566306
566501
566679
566659
566827
567673
568930
569608
570953
572437
598878
591285
593938
592772
596322
598738
598701
597776
597743
598081
598542
598582
598582
598462
597684
598062
598426
598698
598558
598324
598233
598052
597607
591761
589835
598084
599143
599272
598316
595147
597646
598971
598179
598208
598009
598239
598348
598678
598403
597978
598093
597952
598146
598647
598770
598357
598681
598316
598752
599543
595084
599127
599264
599305
598888
599661
599858
599354
598478
598497
598938
598940
598845
598888
598849
598607
598980
598937
598980
598994
598436
598613
598327
598398
598071
599033
599201
598856
598669
598848
598754
598926
598866
598253
598582
598661
598760
598873
598777
598625
598168
598257
598405
598864
598988
598848
598664
598322
598387
598095
598483
599607
599055
598752
598729
598758
598965
599084
598426
598324
598260
598498
598844
598890
598645
598511
598491
598406
598478
598579
598862
598564
598657
599147
598884
598759
598398
598883
598729
598660
598816
598931
598910
598816
598574
598385
598706
598695
598637
598645
598653
598600
598621
598646
598675
598527
598599
598430
598515
598534
598533
598501
598449
598431
598607
598388
598816
598940
598857
598591
598582
598571
598534
598537
598538
598666
598871
598872
598858
598704
598507
598521
598500
598548
598435
598482
598432
598902
598613
598592
598567
598593
598884
598973
598854
598876
598763
598810
598928
598908
598936
598916
598918
598909
598906
598900
598831
598939
598927
598874
599069
599177
598901
599179
598765
598746
598715
598801
599110
598954
598820
599438
599461
599374
598911
598917
598931
598984
598957
598997
599068
599056
599067
599051
598951
598940
599150
599142
598958
598734
598725
598751
598822
598822
599015
598388
598378
599282
599414
598944
598916
598870
598988
598932
599026
599063
599019
599072
599054
599045
598844
598922
598619
598624
598543
598684
598648
598722
598748
598824
598526
598550
598750
598521
598366
598350
598812
598885
598545
598512
598506
598630
598610
598446
598459
598592
598572
598543
598579
598524
598543
598556
598714
598730
598797
598731
598895
599039
598968
599070
598924
598789
598757
598909
598772
598765
598785
598968
598908
598891
598788
598746
598733
598596
598554
598895
598901
598904
598895
598833
598796
598906
598987
598972
598955
599001
599023
599066
599045
598896
599071
599137
599265
598919
598924
599011
599142
599295
599232
598846
599115
599112
598953
599101
598935
598920
598908
598906
598950
598930
598943
598955
599086
599085
599103
599051
599060
599192
598947
598895
598906
598912
598953
599042
599274
599178
599190
599046
599074
598933
598923
598877
598889
598896
598885
598834
598815
598749
598713
598811
598810
598953
598968
598889
598863
598889
598897
598901
598878
598878
598873
598886
598881
598881
598873
598858
598866
598859
598828
598688
598874
598871
598823
598814
598068
598331
598454
598352
598430
598638
598873
598874
598869
598872
598871
598876
598879
598878
598880
598857
598674
598545
598469
598331
598178
598291
598905
598452
598208
597985
598274
597874
598554
598590
598597
598421
598659
598763
598663
598601
598729
598734
598488
598337
598312
598084
598256
598316
598154
597965
597987
598191
598351
598153
598009
598342
599170
600018
599951
599849
599140
599083
598711
598616
598538
598610
598586
598429
598156
598102
597852
597864
597729
598013
598269
598691
598824
598920
598774
599539
599787
599986
599800
599411
599040
598965
599474
599218
599228
599199
599234
599111
599036
598933
599148
599117
599262
599161
599300
599037
598944
598925
598931
598928
598957
599418
599671
599256
599070
599013
598960
598923
598914
598919
599038
599066
599175
599235
599034
598997
599020
599074
599011
599121
598929
598915
598914
598912
598912
598917
599353
598946
598961
598975
598970
598962
598940
598919
598910
598907
598914
598919
598931
598949
598955
598973
598969
598963
598956
598949
598942
598937
598933
598921
598923
598919
598946
598950
598975
599025
598798
598844
598885
598903
598908
598900
598914
598919
598912
598942
598986
598983
598974
598973
598965
598957
598949
598941
598937
598897
598897
598903
598784
598781
598797
598815
598842
598888
598900
598899
598893
598889
598880
598871
598857
598832
598795
598807
598818
598831
598848
598861
598872
598880
598887
598892
598900
598894
598609
598685
598723
598710
598743
598867
598913
598910
598904
598882
598827
598779
598735
598689
598661
598676
598710
598742
598768
598788
598805
598818
598825
598800
598748
598692
598126
598633
598565
598535
598531
598590
598786
598903
598870
598763
598686
598624
598558
598459
598410
598407
598417
598435
598449
598466
598478
598483
598485
598467
598394
598159
597747
596750
596356
595942
595828
595713
595442
595732
596098
596420
596672
596922
597131
597300
597424
597503
597557
597559
597521
597455
597355
597226
597215
597620
597553
598035
596179
595507
594986
594892
594803
594390
594402
594156
594409
594811
595249
595665
596090
596447
596729
596920
597046
597072
597039
596970
596871
596889
596923
597024
597493
598226
597668
599375
600738
601000
601209
601699
601302
601181
600701
600234
599750
599226
598731
598247
597846
597724
597786
598061
598348
598615
598998
599659
600226
600219
599771
600475
599122
603025
602629
603009
603005
602939
603146
602957
602688
602396
602093
601673
601324
601186
601201
601154
601106
601043
601132
601355
601562
601443
601327
601232
601213
600677
602972
600204
600266
600262
600250
600185
600252
600261
600266
600267
600349
600617
600817
600953
601028
601043
601002
600913
600781
600614
600418
600195
599951
599810
600169
600383
600040
599574
599567
599508
599445
599371
599446
599504
599562
599620
599676
599726
599769
599804
599830
599847
599855
599855
599848
599835
599817
599793
599757
599720
599683
599710
599272
599020
598986
598957
598928
598919
598943
598974
599007
599044
599082
599122
599161
599197
599231
599260
599285
599305
599320
599330
599336
599338
599344
599339
599332
599487
598943
598930
598924
598919
598916
598913
598913
598913
598916
598920
598927
598937
598948
598960
598972
598985
598997
599008
599018
599026
599033
599038
599046
599055
599060
599114
598913
598911
598902
598902
598900
598899
598899
598898
598896
598898
598900
598902
598904
598907
598909
598912
598914
598916
598918
598919
598921
598922
598925
598929
598934
598941
598907
598893
598888
598886
598885
598885
598886
598888
598891
598895
598900
598905
598910
598914
598918
598919
598920
598920
598918
598916
598914
598911
598911
598912
598914
598915
599064
598911
598895
598883
598867
598870
598896
598922
598946
598967
598984
598997
599005
599009
599011
599010
599008
599005
599001
598998
598995
598992
598993
598998
599000
599033
600122
599952
600132
600184
600207
600202
600211
600189
600152
600101
600042
599978
599912
599846
599783
599722
599663
599606
599550
599496
599442
599390
599345
599293
599254
599768
600655
600783
600764
600742
600722
600702
600712
600708
600701
600692
600681
600667
600650
600630
600603
600571
600535
600494
600451
600405
600358
600310
600252
600198
600138
600279
600265
600565
600384
600309
600273
600303
600292
600306
600331
600364
600403
600443
600485
600482
600469
600453
600434
600412
600385
600355
600324
600292
600259
600224
600202
599708
599768
599835
599796
599779
599765
599768
599768
599771
599773
599776
599779
599781
599782
599820
599863
599900
599926
599927
599926
599921
599912
599901
599887
599870
599852
599639
599448
599483
599370
599457
599513
599561
599566
599575
599585
599596
599608
599621
599633
599625
599606
599586
599571
599574
599577
599577
599577
599575
599571
599566
599558
599317
599125
598890
599047
598990
598992
598937
598907
598897
598902
598918
598944
598978
599019
599089
599181
599278
599333
599389
599447
599507
599566
599625
599662
599668
599654
599101
598938
598465
598526
598526
598524
598522
598521
598522
598523
598524
598526
598529
598532
598537
598543
598554
598620
598695
598767
598845
598934
599028
599143
599209
599281
598973
598529
598438
598459
598485
598488
598492
598495
598497
598499
598500
598501
598502
598503
598504
598505
598507
598509
598512
598519
598535
598545
598556
598575
598667
598753
598770
598510
598426
598462
598484
598487
598490
598492
598493
598495
598496
598496
598496
598497
598498
598499
598501
598503
598505
598515
598518
598521
598525
598529
598533
598543
598679
598536
598442
598496
598500
598502
598504
598505
598507
598507
598507
598507
598507
598507
598507
598508
598509
598511
598513
598515
598517
598520
598523
598526
598529
598540
598638
598565
598482
598528
598526
598530
598533
598534
598534
598532
598530
598529
598528
598527
598527
598527
598527
598527
598528
598529
598531
598532
598534
598536
598538
598541
598647
598603
598532
598573
598578
598580
598580
598579
598576
598572
598567
598563
598560
598557
598555
598553
598552
598551
598550
598549
598549
598549
598550
598550
598551
598552
598657
598652
598582
598617
598627
598626
598623
598619
598615
598609
598603
598598
598593
598589
598585
598582
598579
598576
598574
598572
598570
598569
598567
598566
598565
598565
598666
598704
598620
598651
598658
598655
598651
598645
598639
598633
598627
598621
598615
598610
598606
598602
598598
598594
598591
598588
598585
598583
598580
598578
598576
598574
598672
598738
598657
598659
598656
598652
598647
598642
598637
598631
598626
598622
598618
598614
598610
598607
598603
598600
598597
598594
598591
598588
598585
598582
598579
598577
598675
598735
598633
598637
598633
598629
598625
598621
598617
598613
598610
598608
598605
598603
598600
598598
598595
598593
598590
598588
598585
598583
598580
598578
598576
598574
598675
598707
598589
598608
598600
598597
598594
598591
598589
598588
598587
598586
598586
598584
598583
598582
598581
598580
598579
598578
598576
598575
598574
598573
598571
598570
598673
598671
598548
598576
598568
598565
598564
598564
598565
598565
598566
598567
598568
598568
598569
598569
598569
598569
598569
598569
598569
598569
598569
598568
598568
598569
598670
598634
598525
598548
598544
598544
598544
598545
598547
598550
598552
598554
598556
598557
598559
598560
598562
598563
598564
598565
598566
598567
598568
598569
598570
598571
598668
598605
598514
598526
598534
598535
598536
598539
598542
598545
598548
598550
598553
598555
598558
598560
598562
598564
598565
598567
598569
598570
598572
598573
598574
598576
598669
598587
598516
598524
598534
598536
598537
598540
598544
598547
598550
598553
598556
598559
598562
598564
598567
598569
598572
598574
598576
598578
598580
598582
598583
598585
598674
598584
598524
598536
598545
598546
598549
598552
598556
598560
598563
598566
598569
598571
598574
598577
598579
598582
598584
598586
598589
598591
598593
598595
598597
598600
598684
598597
598546
598563
598566
598568
598571
598575
598578
598581
598584
598587
598590
598592
598595
598597
598600
598602
598604
598607
598609
598611
598613
598615
598618
598620
598698
598624
598581
598597
598599
598602
598605
598608
598611
598613
598616
598618
598620
598622
598624
598626
598628
598630
598632
598634
598636
598638
598640
598642
598644
598646
598717
598664
598626
598639
598642
598643
598647
598649
598651
598653
598655
598656
598658
598659
598660
598662
598663
598665
598666
598667
598669
598670
598671
598673
598674
598676
598739
598709
598676
598687
598689
598691
598693
598695
598696
598697
598698
598699
598700
598701
598701
598702
598703
598703
598704
598705
598705
598706
598707
598707
598708
598709
598765
598755
598728
598736
598738
598740
598741
598742
598743
598743
598744
598744
598744
598744
598744
598744
598744
598744
598744
598744
598744
598744
598744
598744
598744
598744
598792
598796
598778
598784
598784
598787
598788
598788
598788
598788
598788
598788
598787
598787
598786
598786
598785
598784
598783
598783
598782
598781
598781
598780
598779
598779
598820
598835
598823
598828
598826
598830
598830
598830
598830
598830
598829
598829
598828
598827
598826
598825
598824
598822
598821
598820
598819
598817
598816
598815
598814
598813
598847
598870
598863
598866
598865
598867
598868
598868
598867
598867
598866
598865
598864
598863
598862
598860
598859
598857
598855
598854
598852
598850
598849
598847
598845
598844
598872
598900
598896
598897
598898
598899
598899
598899
598899
598898
598897
598896
598895
598894
598892
598891
598889
598887
598885
598884
598882
598880
598878
598876
598874
598872
598894
598924
598923
598922
598923
598924
598924
598924
598924
598923
598922
598921
598920
598919
598918
598916
598914
598912
598911
598909
598906
598904
598902
598900
598898
598896
598913
598943
598943
598941
598943
598944
598944
598944
598943
598943
598942
598941
598940
598939
598937
598936
598934
598932
598931
598929
598927
598925
598922
598920
598918
598916
598930
598957
598957
598953
598957
598958
598958
598958
598957
598957
598956
598955
598954
598953
598952
598951
598949
598948
598946
598944
598942
598940
598938
598936
598934
598932
598943
598966
598967
598961
598966
598967
598967
598967
598967
598966
598966
598965
598964
598963
598962
598961
598959
598958
598957
598955
598953
598952
598950
598948
598946
598944
598953
598972
598972
598968
598971
598972
598972
598972
598972
598972
598971
598971
598970
598969
598968
598967
598966
598965
598964
598962
598961
598959
598958
598956
598954
598953
598959
598974
598974
598971
598973
598974
598974
598974
598974
598974
598973
598973
598972
598972
598971
598970
598969
598969
598968
598966
598965
598964
598963
598961
598960
598958
598963
598973
598974
598971
598973
598973
598974
598974
598974
598973
598973
598973
598972
598972
598971
598971
598970
598969
598969
598968
598967
598966
598965
598964
598963
598961
598964
598971
598971
598969
598970
598971
598971
598971
598971
598971
598971
598970
598970
598970
598969
598969
598969
598968
598968
598967
598966
598966
598965
598964
598963
598962
598964
598967
598967
598965
598966
598967
598967
598967
598967
598967
598967
598967
598967
598966
598966
598966
598966
598965
598965
598965
598964
598964
598963
598963
598962
598961
598962
598962
598962
598960
598961
598961
598962
598962
598962
598962
598962
598962
598962
598962
598962
598962
598962
598962
598961
598961
598961
598961
598960
598960
598959
598959
598960
598956
598956
598955
598956
598956
598956
598956
598956
598956
598957
598957
598957
598957
598957
598957
598957
598957
598957
598957
598957
598957
598957
598956
598956
598956
598956
598951
598950
598950
598950
598951
598951
598951
598951
598952
598952
598952
598952
598952
598952
598952
598952
598953
598953
598953
598953
598953
598953
598953
598952
598953
598953
598946
598946
598945
598945
598946
598946
598946
598947
598947
598947
598947
598947
598948
598948
598948
598948
598949
598949
598949
598949
598949
598949
598949
598949
598950
598949
598941
598940
598940
598940
598941
598941
598941
598942
598942
598942
598942
598943
598943
598943
598943
598944
598944
598944
598944
598944
598945
598945
598945
598945
598946
598946
598936
598935
598934
598936
598937
598937
598937
598937
598937
598938
598938
598938
598939
598939
598939
598939
598940
598940
598940
598940
598941
598941
598941
598942
598942
598942
598932
598932
598931
598931
598932
598933
598933
598933
598933
598933
598934
598934
598934
598934
598935
598935
598935
598936
598936
598936
598937
598937
598937
598937
598938
598937
598930
598928
598929
598929
598928
598929
598929
598929
598929
598930
598930
598930
598930
598930
598931
598931
598931
598931
598932
598932
598932
598932
598933
598933
598932
598934
598928
598928
598929
598928
598925
598926
598927
598927
598927
598928
598928
598928
598928
598928
598929
598929
598929
598929
598930
598930
598930
598930
598931
598931
598931
598930
598928
598928
598926
598927
598927
598927
598926
598926
598927
598927
598927
598927
598927
598928
598928
598928
598928
598929
598929
598929
598929
598930
598930
598931
598931
598931
598927
598927
598928
598926
598926
598926
598926
598926
598926
598927
598927
598927
598927
598927
598928
598928
598928
598928
598929
598929
598929
598929
598930
598930
598930
598930
598910
598927
598914
598914
598914
598915
598915
598915
598915
598915
598915
598916
598916
598916
598916
598916
598917
598917
598917
598918
598918
598918
598919
598920
598929
598912
597965
598130
598113
598109
598109
598108
598108
598107
598107
598107
598107
598107
598108
598108
598108
598108
598109
598109
598109
598110
598110
598111
598111
598115
598132
597971
79995.6
80037.5
80017
80022.4
80024.4
80024.3
80024
80023.9
80023.8
80023.6
80023.5
80023.5
80023.6
80023.6
80023.8
80023.9
80024.2
80024.5
80024.9
80025.5
80026.3
80027
80026.6
80025.3
80042.5
80003
79911.9
79889
79884.7
79887.8
79889.1
79889.1
79889.1
79889.1
79889
79888.9
79888.8
79888.7
79888.8
79888.8
79889
79889.2
79889.4
79889.7
79889.9
79890.4
79891.6
79893.5
79894.9
79894
79888.3
79908.9
78929.2
78920.4
78922.4
78917.8
78916.6
78916.6
78916.8
78916.7
78916.5
78916.3
78916.3
78916.3
78916.4
78916.7
78917
78917.4
78917.8
78918
78918.1
78918.3
78919.1
78921.5
78927.6
78936.6
78926
78918.8
78811.4
78808
78810.1
78807.2
78806.3
78806.4
78806.4
78806.2
78805.9
78805.8
78805.8
78805.9
78806.2
78806.5
78806.9
78807.5
78808.1
78808.7
78809.2
78809.4
78808.1
78804
78802.1
78813.3
78816.6
78806.5
78764.8
78771.9
78766.2
78765.1
78765.2
78765.3
78765.2
78764.8
78764.5
78764.5
78764.6
78764.8
78765.2
78765.6
78766.1
78766.6
78767.4
78768.4
78770
78772.4
78774.5
78773.1
78767.4
78767.3
78778.9
78774.8
78724.8
78727.7
78724.5
78725
78725.4
78725.3
78724.9
78724.5
78724.4
78724.5
78724.8
78725.1
78725.6
78726.1
78726.6
78727.1
78727.5
78728
78729.2
78731.9
78735.9
78739.9
78741.3
78735.9
78741.5
78740.9
78702.4
78696.2
78698
78699
78699
78698.5
78698
78697.8
78697.8
78698.1
78698.5
78699
78699.6
78700.2
78701
78701.7
78702.1
78702
78701.6
78701.9
78703.1
78705
78707.6
78704.7
78707.1
78707.9
78663.8
78660.6
78663
78663.1
78662.4
78661.8
78661.5
78661.4
78661.7
78662.2
78662.7
78663.3
78664
78664.7
78665.6
78666.9
78668.3
78669.2
78669.2
78668.8
78669.3
78671
78673.6
78673.9
78675.8
78677
78624.4
78627.3
78627.4
78626.3
78625.4
78624.9
78624.9
78625.1
78625.5
78626.1
78626.7
78627.4
78628.1
78628.7
78629.5
78630.8
78632.8
78635.2
78637
78637.8
78638.8
78641.1
78643.5
78645.1
78647
78648
78600
78602.5
78600.4
78599
78598.4
78598.4
78598.6
78599
78599.5
78600.1
78600.8
78601.6
78602.3
78602.9
78603.3
78604
78605.3
78607.6
78609.9
78611.4
78612.4
78614.4
78616.4
78617.9
78619.5
78620.3
78580.3
78578.4
78576.1
78575.4
78575.4
78575.7
78576.1
78576.6
78577
78577.6
78578.2
78579.1
78580.2
78581
78581.5
78581.7
78582.2
78583.4
78585.3
78586.6
78587.4
78588.8
78590.3
78591.6
78593.1
78593.9
78554.2
78549.9
78549
78549.1
78549.6
78550.1
78550.6
78551
78551.3
78551.7
78552.3
78553.2
78554.5
78555.9
78556.9
78557.5
78558
78558.8
78560.2
78561.5
78562.4
78563.7
78565.1
78566.6
78568.3
78569.3
78524.4
78521.5
78522
78522.7
78523.3
78523.9
78524.3
78524.6
78524.8
78525.1
78525.4
78526.2
78527.4
78529.1
78530.7
78532.1
78533.1
78534.2
78535.7
78537.3
78538.7
78540.2
78542
78543.8
78545.8
78547.1
78499.8
78499.7
78500.7
78501.4
78501.9
78502.2
78502.5
78502.8
78503.1
78503.3
78503.5
78504
78504.9
78506.3
78508
78509.7
78511.2
78512.7
78514.4
78516.3
78518
78519.9
78521.8
78523.8
78525.9
78527.3
78484.3
78485.8
78486.4
78486.6
78486.7
78486.8
78487.1
78487.4
78487.8
78488.1
78488.3
78488.6
78489.2
78490.1
78491.4
78492.9
78494.4
78495.9
78497.5
78499.3
78501
78502.8
78504.6
78506.5
78508.4
78509.7
78474.6
78475.6
78475.4
78475.1
78474.9
78474.9
78475.1
78475.5
78476.1
78476.6
78477.1
78477.5
78477.9
78478.4
78479.3
78480.3
78481.4
78482.6
78483.8
78485.2
78486.6
78488.1
78489.6
78491.2
78492.8
78493.8
78465
78464.8
78464
78463.4
78463
78463
78463.2
78463.7
78464.4
78465.1
78465.9
78466.5
78467
78467.5
78468.2
78468.9
78469.7
78470.5
78471.4
78472.4
78473.5
78474.7
78475.9
78477.1
78478.4
78479.3
78453
78451.6
78450.6
78450.1
78449.8
78449.8
78450.1
78450.6
78451.3
78452.2
78453.1
78454
78454.8
78455.5
78456.2
78456.9
78457.6
78458.4
78459.2
78460
78460.9
78461.9
78462.9
78464.1
78465.3
78466.1
78439.2
78437.4
78436.7
78436.4
78436.3
78436.4
78436.7
78437.2
78437.9
78438.8
78439.7
78440.7
78441.7
78442.6
78443.5
78444.4
78445.3
78446.1
78447
78447.9
78448.9
78449.9
78450.9
78452.1
78453.3
78454.1
78426
78424.5
78424.3
78424.3
78424.4
78424.7
78425
78425.5
78426
78426.8
78427.6
78428.6
78429.6
78430.6
78431.6
78432.7
78433.7
78434.7
78435.8
78436.9
78438
78439.1
78440.3
78441.5
78442.8
78443.7
78415.7
78415
78415.2
78415.6
78415.9
78416.2
78416.6
78416.9
78417.4
78417.9
78418.5
78419.3
78420.1
78421.1
78422.1
78423.1
78424.2
78425.3
78426.5
78427.7
78428.9
78430.1
78431.3
78432.6
78434
78434.9
78409.7
78409.8
78410.3
78410.8
78411.2
78411.5
78411.8
78412.1
78412.4
78412.7
78413.1
78413.6
78414.2
78414.9
78415.7
78416.5
78417.5
78418.5
78419.6
78420.7
78421.9
78423.1
78424.3
78425.5
78426.8
78427.7
78407.5
78408.1
78408.6
78409
78409.3
78409.7
78409.9
78410.1
78410.3
78410.5
78410.7
78410.9
78411.2
78411.6
78412.1
78412.7
78413.4
78414.2
78415
78415.9
78416.9
78417.9
78418.9
78420
78421.1
78421.9
78407.2
78407.8
78408.2
78408.5
78408.7
78408.9
78409.1
78409.2
78409.4
78409.5
78409.6
78409.7
78409.8
78410
78410.2
78410.6
78411
78411.5
78412
78412.7
78413.4
78414.1
78414.9
78415.7
78416.5
78417.2
78407.1
78407.5
78407.7
78407.8
78407.9
78408
78408.1
78408.2
78408.3
78408.4
78408.5
78408.5
78408.6
78408.7
78408.8
78409
78409.2
78409.5
78409.8
78410.2
78410.6
78411.1
78411.6
78412.2
78412.8
78413.2
78406.1
78406.3
78406.2
78406.2
78406.2
78406.3
78406.3
78406.4
78406.5
78406.6
78406.7
78406.8
78406.9
78407
78407.1
78407.2
78407.3
78407.4
78407.6
78407.8
78408.1
78408.4
78408.7
78409.1
78409.5
78409.8
78404.1
78404
78403.9
78403.8
78403.7
78403.7
78403.7
78403.8
78403.9
78404
78404.1
78404.3
78404.4
78404.5
78404.7
78404.8
78404.9
78405
78405.1
78405.3
78405.5
78405.7
78405.9
78406.2
78406.4
78406.6
78401.3
78401
78400.8
78400.7
78400.6
78400.6
78400.6
78400.6
78400.7
78400.8
78401
78401.2
78401.4
78401.6
78401.7
78401.9
78402.1
78402.2
78402.4
78402.5
78402.7
78402.9
78403.1
78403.3
78403.5
78403.7
78398
78397.6
78397.4
78397.2
78397.1
78397.1
78397.1
78397.1
78397.2
78397.4
78397.5
78397.8
78398
78398.2
78398.5
78398.7
78399
78399.2
78399.4
78399.6
78399.8
78400.1
78400.3
78400.5
78400.8
78400.9
78394.4
78393.9
78393.7
78393.5
78393.4
78393.4
78393.4
78393.4
78393.5
78393.7
78393.9
78394.2
78394.5
78394.8
78395.2
78395.5
78395.8
78396.1
78396.4
78396.7
78397
78397.3
78397.6
78397.9
78398.2
78398.3
78391.9
78392.4
78392.6
78392.7
78392.7
78392.8
78392.8
78392.7
78392.6
78392.5
78392.3
78392.1
78391.9
78391.9
78392.1
78392.4
78392.8
78393.2
78393.6
78394
78394.4
78394.7
78395.1
78395.4
78395.8
78395.9
78394.3
78394.5
78394.6
78394.6
78394.6
78394.6
78394.6
78394.6
78394.5
78394.4
78394.3
78394.2
78394
78393.8
78393.6
78393.3
78393
78392.7
78392.5
78392.4
78392.4
78392.7
78393
78393.4
78393.7
78393.8
78395.2
78395.3
78395.3
78395.3
78395.3
78395.3
78395.2
78395.2
78395.2
78395.1
78395.1
78395
78394.9
78394.8
78394.6
78394.4
78394.2
78393.9
78393.6
78393.4
78393
78392.7
78392.5
78392.3
78392.4
78392
78395.3
78395.3
78395.3
78395.3
78395.3
78395.2
78395.2
78395.2
78395.2
78395.2
78395.1
78395.1
78395
78394.9
78394.8
78394.7
78394.5
78394.4
78394.1
78393.9
78393.7
78393.4
78393.1
78392.8
78392.5
78391.9
78394.9
78394.9
78394.9
78394.8
78394.8
78394.8
78394.8
78394.8
78394.8
78394.7
78394.7
78394.7
78394.7
78394.6
78394.6
78394.5
78394.4
78394.3
78394.1
78394
78393.8
78393.6
78393.3
78393.1
78392.8
78392.5
78394.3
78394.2
78394.2
78394.2
78394.1
78394.1
78394.1
78394.1
78394.1
78394.1
78394.1
78394.1
78394.1
78394
78394
78394
78393.9
78393.9
78393.8
78393.7
78393.5
78393.4
78393.2
78393.1
78392.9
78392.6
78393.5
78393.4
78393.4
78393.4
78393.4
78393.3
78393.3
78393.3
78393.3
78393.3
78393.3
78393.3
78393.3
78393.3
78393.3
78393.3
78393.3
78393.3
78393.2
78393.2
78393.1
78393
78392.9
78392.8
78392.6
78392.5
78392.7
78392.6
78392.6
78392.5
78392.5
78392.5
78392.5
78392.5
78392.5
78392.5
78392.5
78392.5
78392.5
78392.5
78392.5
78392.5
78392.5
78392.5
78392.5
78392.5
78392.5
78392.5
78392.4
78392.3
78392.2
78392.1
78391.8
78391.7
78391.7
78391.7
78391.6
78391.6
78391.6
78391.6
78391.6
78391.6
78391.6
78391.6
78391.6
78391.6
78391.7
78391.7
78391.7
78391.8
78391.8
78391.8
78391.8
78391.8
78391.8
78391.8
78391.7
78391.7
78390.8
78390.8
78390.7
78390.7
78390.8
78390.8
78390.8
78390.9
78390.9
78390.9
78390.9
78390.9
78390.9
78390.9
78390.9
78390.9
78391
78391
78391.1
78391.1
78391.1
78391.2
78391.2
78391.2
78391.2
78391.1
78391.5
78391.5
78391.6
78391.6
78391.6
78391.6
78391.6
78391.6
78391.6
78391.6
78391.6
78391.6
78391.6
78391.6
78391.6
78391.5
78391.5
78391.5
78391.4
78391.4
78391.4
78391.3
78391.3
78391.3
78391.3
78391.1
78392
78392
78392
78392.1
78392.1
78392.1
78392.1
78392.1
78392.1
78392.1
78392.1
78392.1
78392.1
78392
78392
78392
78392
78391.9
78391.9
78391.9
78391.8
78391.8
78391.7
78391.7
78391.7
78391.6
78392.3
78392.3
78392.3
78392.3
78392.4
78392.4
78392.4
78392.4
78392.4
78392.3
78392.3
78392.3
78392.3
78392.3
78392.3
78392.3
78392.3
78392.2
78392.2
78392.2
78392.1
78392.1
78392.1
78392
78392
78391.9
78392.5
78392.5
78392.5
78392.5
78392.5
78392.5
78392.5
78392.5
78392.5
78392.5
78392.5
78392.5
78392.5
78392.5
78392.5
78392.5
78392.4
78392.4
78392.4
78392.4
78392.3
78392.3
78392.3
78392.2
78392.2
78392.2
78392.6
78392.6
78392.6
78392.6
78392.6
78392.6
78392.6
78392.6
78392.6
78392.6
78392.6
78392.6
78392.6
78392.6
78392.6
78392.5
78392.5
78392.5
78392.5
78392.5
78392.5
78392.4
78392.4
78392.4
78392.3
78392.3
78392.6
78392.6
78392.6
78392.6
78392.6
78392.6
78392.6
78392.6
78392.6
78392.6
78392.6
78392.6
78392.6
78392.6
78392.6
78392.6
78392.6
78392.6
78392.5
78392.5
78392.5
78392.5
78392.5
78392.4
78392.4
78392.4
78392.6
78392.6
78392.6
78392.6
78392.6
78392.6
78392.6
78392.6
78392.6
78392.6
78392.6
78392.6
78392.6
78392.6
78392.6
78392.6
78392.6
78392.6
78392.6
78392.5
78392.5
78392.5
78392.5
78392.5
78392.5
78392.4
78392.6
78392.6
78392.6
78392.6
78392.5
78392.5
78392.6
78392.6
78392.6
78392.6
78392.6
78392.6
78392.6
78392.6
78392.6
78392.6
78392.5
78392.5
78392.5
78392.5
78392.5
78392.5
78392.5
78392.5
78392.5
78392.5
78392.5
78392.5
78392.5
78392.5
78392.5
78392.5
78392.5
78392.5
78392.5
78392.5
78392.5
78392.5
78392.5
78392.5
78392.5
78392.5
78392.5
78392.5
78392.5
78392.5
78392.5
78392.5
78392.5
78392.5
78392.5
78392.4
78392.4
78392.4
78392.4
78392.4
78392.4
78392.4
78392.4
78392.4
78392.4
78392.4
78392.4
78392.5
78392.5
78392.5
78392.5
78392.5
78392.5
78392.5
78392.5
78392.5
78392.5
78392.5
78392.4
78392.4
78392.4
78392.4
78392.4
78392.4
78392.4
78392.4
78392.4
78392.4
78392.4
78392.4
78392.4
78392.4
78392.4
78392.4
78392.4
78392.4
78392.4
78392.4
78392.4
78392.4
78392.4
78392.4
78392.4
78392.4
78392.4
78392.4
78392.4
78392.4
78392.3
78392.3
78392.3
78392.3
78392.3
78392.4
78392.4
78392.4
78392.4
78392.4
78392.4
78392.4
78392.4
78392.4
78392.4
78392.4
78392.4
78392.4
78392.4
78392.4
78392.4
78392.4
78392.4
78392.4
78392.4
78392.4
78392.3
78392.3
78392.3
78392.3
78392.3
78392.3
78392.3
78392.3
78392.3
78392.3
78392.3
78392.3
78392.3
78392.3
78392.3
78392.3
78392.3
78392.3
78392.3
78392.3
78392.3
78392.3
78392.3
78392.3
78392.3
78392.3
78392.3
78392.3
78392.3
78392.3
78392.3
78392.3
78392.3
78392.3
78392.3
78392.3
78392.3
78392.3
78392.3
78392.3
78392.3
78392.3
78392.3
78392.3
78392.3
78392.3
78392.3
78392.3
78392.3
78392.3
78392.3
78392.3
78392.3
78392.3
78392.3
78392.3
78392.3
78392.3
78392.3
78392.3
78392.3
78392.3
78392.3
78392.3
78392.2
78392.2
78392.2
78392.2
78392.2
78392.2
78392.2
78392.2
78392.2
78392.2
78392.2
78392.2
78392.2
78392.2
78392.2
78392.2
78392.2
78392.2
78392.2
78392.2
78392.2
78392.2
78392.2
78392.2
78392.2
78392.2
78392.2
78392.2
78392.2
78392.2
78392.2
78392.2
78392.2
78392.2
78392.2
78392.2
78392.2
78392.2
78392.2
78392.2
78392.2
78392.2
78392.2
78392.2
78392.2
78392.2
78392.2
78392.2
78392.2
78392.1
78392.1
78392.1
78392.1
78392.1
78392.1
78392.1
78392.1
78392.1
78392.1
78392.1
78392.1
78392.1
78392.1
78392.1
78392.1
78392.1
78392.1
78392.1
78392.1
78392.1
78392.1
78392.1
78392.1
78392.1
78392.1
78392.1
78392.1
78392.1
78392.1
78392.1
78392.1
78392.1
78392
78392
78392
78392
78392
78392
78392
78392
78392
78392
78392
78392
78392
78392
78392
78392
78392
78392
78392
78392
78392
78392
78392
78392
78392
78392
78392
78392
78392
78392
78392
78391.9
78391.9
78391.9
78391.9
78391.9
78391.9
78391.9
78391.9
78391.9
78391.9
78391.9
78391.9
78391.9
78391.9
78391.9
78391.9
78391.9
78391.9
78391.9
78391.9
78391.9
78391.9
78391.9
78391.9
78391.9
78391.9
78391.9
78391.9
78391.9
78391.9
78391.8
78391.8
78391.8
78391.8
78391.8
78391.8
78391.8
78391.8
78391.8
78391.8
78391.8
78391.8
78391.8
78391.8
78391.8
78391.8
78391.8
78391.8
78391.8
78391.8
78391.8
78391.8
78391.8
78391.8
78391.8
78391.8
78391.8
78391.7
78391.7
78391.7
78391.7
78391.7
78391.7
78391.7
78391.7
78391.7
78391.7
78391.7
78391.7
78391.7
78391.7
78391.7
78391.7
78391.7
78391.7
78391.7
78391.7
78391.7
78391.7
78391.7
78391.7
78391.7
78391.7
78391.6
78391.6
78391.6
78391.5
78391.5
78391.5
78391.5
78391.5
78391.5
78391.5
78391.5
78391.5
78391.5
78391.5
78391.5
78391.6
78391.6
78391.6
78391.6
78391.6
78391.6
78391.6
78391.6
78391.6
78391.6
78391.6
78391.4
78391.4
78391.4
78391.4
78391.4
78391.4
78391.4
78391.4
78391.4
78391.4