/*--------------------------------*- C++ -*----------------------------------*\
  =========                 |
  \\      /  F ield         | OpenFOAM: The Open Source CFD Toolbox
   \\    /   O peration     | Website:  https://openfoam.org
    \\  /    A nd           | Version:  7
     \\/     M anipulation  |
\*---------------------------------------------------------------------------*/
FoamFile
{
    version     2.0;
    format      ascii;
    class       volScalarField;
    location    "0.01";
    object      nu.air-molecular;
}
// * * * * * * * * * * * * * * * * * * * * * * * * * * * * * * * * * * * * * //

dimensions      [0 2 -1 0 0 0 0];

internalField   uniform 1.53333e-05;

boundaryField
{
    inlet
    {
        type            calculated;
        value           uniform 1.53333e-05;
    }
    outlet
    {
        type            calculated;
        value           uniform 1.53333e-05;
    }
    walls
    {
        type            calculated;
        value           uniform 1.53333e-05;
    }
    frontAndBack
    {
        type            empty;
    }
}


// ************************************************************************* //
