/*--------------------------------*- C++ -*----------------------------------*\
  =========                 |
  \\      /  F ield         | OpenFOAM: The Open Source CFD Toolbox
   \\    /   O peration     | Website:  https://openfoam.org
    \\  /    A nd           | Version:  7
     \\/     M anipulation  |
\*---------------------------------------------------------------------------*/
FoamFile
{
    version     2.0;
    format      ascii;
    class       volScalarField;
    location    "0.01";
    object      nu.particles-SchneiderbauerFrictional;
}
// * * * * * * * * * * * * * * * * * * * * * * * * * * * * * * * * * * * * * //

dimensions      [0 2 -1 0 0 0 0];

internalField   nonuniform List<scalar> 
10790
(
6.79972e-07
6.65752e-07
7.03236e-07
7.59107e-07
6.93592e-07
6.73826e-07
6.80657e-07
6.81885e-07
6.77784e-07
6.79876e-07
6.81283e-07
6.8255e-07
6.81962e-07
6.82974e-07
6.81368e-07
6.79257e-07
6.80081e-07
6.80733e-07
6.80955e-07
6.8157e-07
6.82397e-07
6.87227e-07
6.94305e-07
6.98158e-07
7.05741e-07
7.21197e-07
1.54283e-08
2.27924e-08
2.29248e-08
2.41874e-08
2.45495e-08
2.37357e-08
2.46031e-08
2.48162e-08
2.76096e-08
2.50562e-08
2.43759e-08
2.34857e-08
2.62299e-08
2.46554e-08
2.42772e-08
2.61488e-08
2.47687e-08
2.47614e-08
2.57142e-08
2.5317e-08
2.51654e-08
2.4169e-08
2.48899e-08
2.34689e-08
2.29575e-08
1.55564e-08
5.40828e-09
3.34655e-09
3.88866e-09
3.17104e-09
4.38971e-09
4.78606e-09
4.47147e-09
5.63615e-09
5.87847e-09
4.19531e-09
4.71073e-09
3.71278e-09
4.88734e-09
4.11489e-09
3.69463e-09
4.49532e-09
3.40595e-09
4.30861e-09
6.1963e-09
4.32724e-09
4.28796e-09
4.52619e-09
4.94806e-09
3.8912e-09
3.66665e-09
4.33225e-09
1.7431e-09
2.23635e-09
1.64586e-09
1.34256e-09
1.32742e-09
1.3463e-09
2.07636e-09
1.39716e-09
1.54314e-09
1.84623e-09
1.98062e-09
1.03486e-09
1.30966e-09
1.73645e-09
1.13097e-09
1.17279e-09
1.23619e-09
2.4414e-09
1.00459e-09
2.35846e-09
1.39818e-09
2.64099e-09
1.19318e-09
1.27415e-09
1.4374e-09
1.70647e-09
1.74201e-09
2.05445e-09
1.29744e-09
1.93737e-09
1.00907e-09
2.71606e-09
1.01644e-09
2.28986e-09
1.82592e-09
1.57633e-09
2.89642e-09
1.04754e-09
9.23024e-10
1.13371e-09
1.29132e-09
9.40196e-10
1.34954e-09
1.63271e-09
2.52044e-09
1.93853e-09
1.13641e-09
2.02318e-09
3.71733e-09
1.11925e-09
1.3961e-09
1.8164e-09
3.54621e-09
1.14596e-09
1.15107e-09
1.28535e-09
3.08801e-09
1.85761e-09
1.63201e-09
1.45332e-09
1.48154e-09
2.7875e-09
1.50101e-09
2.31125e-09
1.42947e-09
1.04342e-09
1.38241e-09
1.96914e-09
1.16573e-09
1.14918e-09
2.20143e-09
2.09373e-09
2.10056e-09
2.51102e-09
2.23698e-09
1.84996e-09
1.60007e-09
2.11204e-09
2.83041e-09
2.81409e-09
1.53779e-09
1.53261e-09
1.74985e-09
2.39199e-09
1.31893e-09
1.14776e-09
1.46129e-09
2.17799e-09
2.08993e-09
1.16323e-09
1.20104e-09
1.80817e-09
1.5891e-09
1.12665e-09
1.97725e-09
1.32897e-09
1.16776e-09
1.56936e-09
1.49753e-09
1.07079e-09
1.10707e-09
1.98052e-09
1.61647e-09
1.72399e-09
1.53384e-09
1.44567e-09
1.39188e-09
1.01136e-09
2.05122e-09
1.43097e-09
1.30307e-09
1.95432e-09
2.22811e-09
1.57307e-09
1.6457e-09
7.52642e-10
9.76036e-10
1.37269e-09
9.60739e-10
1.78972e-09
1.73012e-09
1.42445e-09
2.49254e-09
1.2308e-09
2.44452e-09
1.58058e-09
1.82837e-09
1.16922e-09
1.13802e-09
1.18752e-09
2.34016e-09
1.73742e-09
1.66046e-09
2.06292e-09
1.32302e-09
2.23575e-09
2.58241e-09
1.27063e-09
1.28013e-09
2.31653e-09
1.77224e-09
1.18306e-09
1.45007e-09
1.87004e-09
2.48305e-09
1.81088e-09
1.43383e-09
1.27465e-09
1.05917e-09
3.63237e-09
1.16049e-09
2.0981e-09
1.81988e-09
1.29108e-09
1.24615e-09
1.21148e-09
2.51758e-09
2.13173e-09
2.25396e-09
1.33689e-09
1.61367e-09
1.23258e-09
1.69005e-09
2.58317e-09
1.17349e-09
3.50228e-09
3.34093e-09
3.02527e-09
2.31714e-09
1.61169e-09
1.34964e-09
2.57755e-09
2.95094e-09
1.52111e-09
2.13644e-09
1.71316e-09
1.97254e-09
9.5682e-10
2.37144e-09
2.05389e-09
9.50455e-10
1.13344e-09
1.94016e-09
9.95085e-10
1.95497e-09
1.10499e-09
1.25605e-09
1.22598e-09
1.24353e-09
1.9101e-09
8.2816e-10
1.88959e-09
8.28422e-10
9.66169e-10
2.3923e-09
2.52568e-09
2.5285e-09
2.02975e-09
1.17865e-09
2.0572e-09
1.0353e-09
2.8839e-09
1.61907e-09
1.39429e-09
9.75799e-10
2.30819e-09
1.93859e-09
1.28806e-09
1.61872e-09
2.14288e-09
2.27406e-09
2.04376e-09
8.48427e-10
1.14252e-09
1.45891e-09
1.82605e-09
1.85159e-09
1.29413e-09
1.11991e-09
1.89065e-09
1.21592e-09
1.25015e-09
2.25657e-09
1.22257e-09
8.29603e-10
1.18218e-09
1.11191e-09
1.24094e-09
2.02184e-09
1.2625e-09
1.25943e-09
9.03364e-10
1.88483e-09
1.80099e-09
1.10304e-09
2.78726e-09
1.74297e-09
7.86098e-10
9.63922e-10
2.3157e-09
1.43683e-09
1.11197e-09
1.85409e-09
9.27314e-10
2.04222e-09
8.03511e-10
7.79679e-10
7.64564e-10
1.68535e-09
1.62694e-09
1.13857e-09
1.5498e-09
1.77149e-09
1.12994e-09
1.24922e-09
1.30618e-09
1.4716e-09
2.11195e-09
1.26167e-09
1.40255e-09
2.3704e-09
9.37162e-10
1.39348e-09
1.4906e-09
2.04109e-09
1.46238e-09
1.73243e-09
1.24668e-09
1.21059e-09
1.16651e-09
1.45756e-09
1.1512e-09
1.13147e-09
1.97312e-09
2.90558e-09
1.63532e-09
2.8706e-09
2.38671e-09
1.94634e-09
1.2919e-09
1.23028e-09
1.27837e-09
1.47779e-09
8.82166e-10
1.64118e-09
1.12199e-09
2.73979e-09
2.72561e-09
1.92641e-09
1.7417e-09
2.34357e-09
2.70382e-09
1.62505e-09
1.01718e-09
1.13919e-09
1.04903e-09
2.30021e-09
1.60257e-09
2.17768e-09
1.24334e-09
2.26492e-09
2.55016e-09
1.55752e-09
1.18926e-09
1.9254e-09
1.78528e-09
1.13161e-09
1.73375e-09
1.29083e-09
1.47753e-09
1.20716e-09
1.10615e-09
1.59951e-09
2.44778e-09
1.38996e-09
1.84862e-09
1.35633e-09
2.104e-09
1.46123e-09
1.43131e-09
1.17205e-09
1.54123e-09
1.91039e-09
1.78921e-09
1.38496e-09
1.85878e-09
2.47295e-09
1.33463e-09
1.27135e-09
1.98469e-09
2.87047e-09
1.77811e-09
1.73424e-09
1.65492e-09
2.61374e-09
2.68028e-09
2.85927e-09
2.04157e-09
1.24778e-09
1.20415e-09
3.02703e-09
1.79839e-09
1.70125e-09
1.84999e-09
2.19001e-09
1.83118e-09
2.50285e-09
2.40038e-09
1.04046e-09
8.55003e-10
1.17208e-09
1.7112e-09
8.90555e-10
2.238e-09
1.94449e-09
1.85255e-09
3.4925e-09
4.84214e-09
3.34899e-09
3.39423e-09
3.18962e-09
2.17651e-09
1.87341e-09
1.6267e-09
2.58762e-09
2.72803e-09
9.58361e-10
6.99609e-10
7.61218e-10
1.22214e-09
1.16028e-09
1.61618e-09
1.38185e-09
2.06788e-09
3.28283e-09
2.08341e-09
2.13836e-09
1.51213e-09
1.74068e-09
2.72235e-09
2.20405e-09
2.31096e-09
1.67415e-09
1.15183e-09
9.50569e-10
8.87151e-10
8.4297e-10
8.83415e-10
1.43477e-09
1.46882e-09
1.42979e-09
1.97029e-09
2.20739e-09
2.4774e-09
2.6476e-09
2.78959e-09
2.97847e-09
1.85268e-09
1.80406e-09
1.50822e-09
1.22105e-09
9.30025e-10
1.2727e-09
2.4041e-09
1.24739e-09
3.43143e-09
1.75391e-09
1.24696e-09
1.70063e-09
1.67874e-09
1.39592e-09
1.43675e-09
1.69109e-09
2.34684e-09
1.83349e-09
1.6588e-09
2.05671e-09
1.4655e-09
1.2628e-09
1.10234e-09
1.04183e-09
1.65271e-09
8.90415e-10
2.18102e-09
1.23354e-09
9.42095e-10
1.01512e-09
8.57296e-10
9.32694e-10
1.13887e-09
2.00737e-09
1.37834e-09
2.8854e-09
1.88795e-09
1.67583e-09
1.41184e-09
1.08477e-09
1.26599e-09
1.59209e-09
7.93074e-10
9.13014e-10
1.68132e-09
1.63351e-09
7.81516e-10
1.25777e-09
1.41982e-09
1.40083e-09
1.4831e-09
1.14279e-09
1.79802e-09
1.65056e-09
1.28808e-09
2.0419e-09
1.5183e-09
1.64803e-09
9.79408e-10
8.71832e-10
1.36877e-09
2.21573e-09
1.44853e-09
7.37941e-10
7.70966e-10
7.8986e-10
9.73521e-10
1.43849e-09
2.35752e-09
1.61681e-09
1.85053e-09
1.40823e-09
1.73043e-09
8.88265e-10
8.1314e-10
1.115e-09
2.63353e-09
2.09658e-09
1.38099e-09
1.37198e-09
1.15161e-09
1.21516e-09
8.67272e-10
1.50616e-09
8.59512e-10
1.07898e-09
1.9876e-09
1.76252e-09
2.3992e-09
1.29275e-09
1.02333e-09
9.25655e-10
1.1349e-09
8.97327e-10
8.67804e-10
1.00895e-09
1.36124e-09
1.06683e-09
1.12233e-09
1.95662e-09
1.56181e-09
1.14335e-09
1.07651e-09
2.13821e-09
1.0912e-09
1.52195e-09
9.1882e-10
1.15625e-09
1.63989e-09
1.65707e-09
1.83607e-09
1.47009e-09
1.84847e-09
3.05628e-09
1.68064e-09
8.73522e-10
1.08177e-09
1.3557e-09
1.38502e-09
1.94304e-09
1.82986e-09
1.93755e-09
2.00521e-09
1.39709e-09
1.03462e-09
1.04525e-09
1.16477e-09
1.16676e-09
1.39566e-09
2.82859e-09
1.80713e-09
1.86281e-09
1.20005e-09
1.43647e-09
1.51221e-09
2.10075e-09
1.11868e-09
1.04838e-09
1.06617e-09
1.14338e-09
1.48578e-09
1.85578e-09
1.21475e-09
1.3247e-09
2.06034e-09
1.32241e-09
1.18439e-09
1.25321e-09
1.38749e-09
2.33399e-09
1.90331e-09
2.38286e-09
2.1467e-09
2.04712e-09
2.14196e-09
2.61133e-09
4.07771e-09
1.87426e-09
2.09217e-09
2.39098e-09
2.10586e-09
1.84971e-09
1.81623e-09
1.79992e-09
1.81018e-09
1.84017e-09
1.93375e-09
2.29803e-09
2.03192e-09
2.14285e-09
2.52924e-09
2.62606e-09
2.71777e-09
2.75225e-09
2.76877e-09
1.14346e-09
8.8648e-10
8.96219e-10
9.74619e-10
1.07232e-09
1.17245e-09
1.36834e-09
2.18454e-09
1.76465e-09
1.35551e-09
1.56351e-09
9.97308e-10
1.08487e-09
1.19355e-09
1.27635e-09
1.34287e-09
1.40582e-09
1.46306e-09
1.48116e-09
1.55682e-09
1.59992e-09
1.58866e-09
1.55853e-09
1.51302e-09
1.53698e-09
1.59042e-09
1.01961e-09
9.1463e-10
1.0202e-09
1.98182e-09
1.3315e-09
1.04942e-09
9.34772e-10
9.47479e-10
1.5156e-09
1.93818e-09
8.89992e-10
1.72476e-09
1.24915e-09
2.68067e-09
1.62055e-09
1.17289e-09
1.04285e-09
9.90711e-10
1.00197e-09
1.0359e-09
1.00338e-09
9.85905e-10
9.8048e-10
9.82217e-10
1.13236e-09
1.28769e-09
1.10281e-09
1.05269e-09
1.78305e-09
1.57313e-09
3.5892e-09
1.88025e-09
1.6637e-09
1.49229e-09
1.2706e-09
1.01133e-09
1.2131e-09
9.61351e-10
2.37059e-09
1.31164e-09
2.27318e-09
1.82215e-09
1.94665e-09
2.65558e-09
2.57492e-09
3.21096e-09
2.56728e-09
2.29306e-09
2.17095e-09
1.80919e-09
1.80966e-09
1.87737e-09
1.34177e-09
1.36569e-09
1.51897e-09
2.71407e-09
1.62964e-09
2.62792e-09
1.38084e-09
1.25797e-09
1.2015e-09
1.13627e-09
1.117e-09
1.1827e-09
1.04353e-09
1.95508e-09
1.11892e-09
1.20427e-09
1.67374e-09
1.57195e-09
1.51593e-09
1.36104e-09
1.85093e-09
1.84456e-09
2.13423e-09
2.47119e-09
1.93729e-09
1.88896e-09
1.45717e-09
1.36836e-09
1.44458e-09
1.80454e-09
2.80462e-09
1.25627e-09
1.43831e-09
1.46324e-09
1.53129e-09
1.53027e-09
1.62516e-09
1.296e-09
1.33937e-09
1.40131e-09
1.491e-09
1.62159e-09
1.85962e-09
2.5841e-09
2.46924e-09
3.16136e-09
2.42827e-09
2.05629e-09
1.89843e-09
1.35149e-09
1.26642e-09
1.36586e-09
1.58409e-09
1.26263e-09
1.27735e-09
1.36636e-09
1.79185e-09
1.13264e-09
1.64626e-09
1.1164e-09
1.10415e-09
1.1414e-09
1.2053e-09
1.28496e-09
1.37024e-09
1.45919e-09
1.54744e-09
1.62781e-09
1.69934e-09
1.75776e-09
1.79826e-09
1.81934e-09
1.95049e-09
2.14381e-09
2.38448e-09
2.72583e-09
2.24326e-09
2.19125e-09
7.23898e-10
7.40482e-10
1.04449e-09
1.12266e-09
2.04812e-09
1.99657e-09
2.19217e-09
1.14733e-09
9.85555e-10
9.00689e-10
8.37079e-10
7.85197e-10
7.49388e-10
7.30706e-10
7.27484e-10
7.35487e-10
7.49853e-10
7.64004e-10
7.70084e-10
7.68747e-10
7.93329e-10
8.37957e-10
8.73983e-10
9.04743e-10
1.07568e-09
1.20638e-09
8.84148e-10
9.37417e-10
1.23657e-09
1.2743e-09
2.7367e-09
1.56086e-09
2.82092e-09
1.22718e-09
1.08113e-09
1.01328e-09
9.6569e-10
9.26103e-10
8.91422e-10
8.60951e-10
8.34407e-10
8.11854e-10
7.9374e-10
7.80442e-10
7.71984e-10
7.67896e-10
7.66202e-10
7.67145e-10
7.69989e-10
7.75851e-10
9.35998e-10
1.05882e-09
1.51914e-09
1.87041e-09
3.08745e-09
2.26617e-09
3.151e-09
1.21323e-09
3.11999e-09
2.02536e-09
2.31452e-09
2.05235e-09
1.71296e-09
1.52516e-09
1.39301e-09
1.2921e-09
1.21218e-09
1.14789e-09
1.09591e-09
1.05406e-09
1.02048e-09
9.93657e-10
9.72166e-10
9.54904e-10
9.40706e-10
9.46134e-10
1.05601e-09
1.1497e-09
1.08359e-09
2.09502e-09
1.52216e-09
1.16629e-09
1.9822e-09
1.14127e-09
2.04785e-09
9.25204e-10
9.56128e-10
1.28049e-09
1.18595e-09
1.03263e-09
9.76596e-10
9.49706e-10
9.36853e-10
9.32297e-10
9.33047e-10
9.37228e-10
9.43452e-10
9.50633e-10
9.58114e-10
9.65208e-10
9.70561e-10
9.85644e-10
1.091e-09
1.20393e-09
1.1311e-09
1.30964e-09
1.98414e-09
1.48485e-09
1.51035e-09
1.89264e-09
1.89698e-09
1.35928e-09
1.53138e-09
1.3203e-09
1.08759e-09
9.84168e-10
9.25499e-10
8.89583e-10
8.66775e-10
8.52039e-10
8.42417e-10
8.359e-10
8.31099e-10
8.2698e-10
8.23079e-10
8.18998e-10
8.15259e-10
8.10798e-10
9.43224e-10
1.06584e-09
1.24898e-09
1.41853e-09
1.85726e-09
2.14477e-09
1.26761e-09
1.91747e-09
1.56509e-09
1.17747e-09
1.0762e-09
1.02132e-09
9.82639e-10
9.51964e-10
9.2682e-10
9.06245e-10
8.89569e-10
8.76259e-10
8.65906e-10
8.58041e-10
8.52217e-10
8.48089e-10
8.45579e-10
8.44593e-10
8.44169e-10
8.46339e-10
9.73211e-10
1.09566e-09
1.30603e-09
1.61167e-09
2.19044e-09
2.25471e-09
9.5984e-10
1.45901e-09
1.42692e-09
1.20224e-09
1.1293e-09
1.08663e-09
1.0531e-09
1.02295e-09
9.95057e-10
9.69183e-10
9.45129e-10
9.22664e-10
9.01672e-10
8.8206e-10
8.63685e-10
8.46496e-10
8.30721e-10
8.16634e-10
8.02629e-10
7.89598e-10
9.08323e-10
1.0435e-09
1.28235e-09
1.85309e-09
2.70324e-09
1.05061e-09
1.56939e-09
1.43722e-09
1.23626e-09
1.14876e-09
1.12192e-09
1.10182e-09
1.07951e-09
1.05503e-09
1.02993e-09
1.00544e-09
9.81749e-10
9.58897e-10
9.36924e-10
9.15924e-10
8.95928e-10
8.76966e-10
8.59405e-10
8.43684e-10
8.27756e-10
8.10009e-10
9.20499e-10
1.0585e-09
1.4335e-09
1.88342e-09
1.29397e-09
7.51612e-10
8.97288e-10
1.20413e-09
9.94765e-10
1.02151e-09
1.05778e-09
1.07698e-09
1.07761e-09
1.06618e-09
1.04899e-09
1.02922e-09
1.00885e-09
9.88637e-10
9.68858e-10
9.498e-10
9.31451e-10
9.13844e-10
8.97384e-10
8.82544e-10
8.67217e-10
8.50151e-10
9.49637e-10
1.07654e-09
9.84111e-10
7.32115e-10
1.42481e-09
6.11794e-10
1.63516e-09
8.06711e-10
8.27603e-10
9.02055e-10
9.82434e-10
1.0434e-09
1.0753e-09
1.08318e-09
1.07695e-09
1.06437e-09
1.04902e-09
1.03241e-09
1.01532e-09
9.98058e-10
9.81054e-10
9.64262e-10
9.48121e-10
9.33217e-10
9.17657e-10
8.99982e-10
9.86675e-10
1.10879e-09
7.68617e-10
9.77683e-10
1.12913e-09
1.37452e-09
7.95361e-10
7.50193e-10
8.09067e-10
8.81992e-10
9.65239e-10
1.04649e-09
1.10652e-09
1.1374e-09
1.14549e-09
1.14045e-09
1.12865e-09
1.11331e-09
1.09626e-09
1.07848e-09
1.06026e-09
1.04149e-09
1.02272e-09
1.00481e-09
9.86283e-10
9.65842e-10
1.03626e-09
1.1532e-09
8.36376e-10
1.06873e-09
9.15325e-10
8.56253e-10
7.78862e-10
8.35647e-10
8.93544e-10
9.54317e-10
1.027e-09
1.11434e-09
1.20042e-09
1.26208e-09
1.29236e-09
1.29947e-09
1.29265e-09
1.27729e-09
1.2561e-09
1.23229e-09
1.20695e-09
1.18002e-09
1.15255e-09
1.12618e-09
1.09919e-09
1.07113e-09
1.11997e-09
1.22229e-09
9.8452e-10
1.04753e-09
9.38791e-10
8.74407e-10
9.09847e-10
9.5921e-10
1.01366e-09
1.07819e-09
1.17139e-09
1.33359e-09
1.67485e-09
1.93384e-09
1.65645e-09
1.6e-09
1.59727e-09
1.62913e-09
1.70102e-09
1.84165e-09
2.27726e-09
1.94554e-09
1.66588e-09
1.52055e-09
1.41721e-09
1.33652e-09
1.32964e-09
1.40149e-09
1.08028e-09
1.11037e-09
1.00021e-09
9.72122e-10
1.01999e-09
1.07109e-09
1.14132e-09
1.26386e-09
1.71295e-09
1.3527e-09
1.14789e-09
1.04214e-09
1.168e-09
9.99776e-10
9.5578e-10
9.35304e-10
9.30413e-10
1.0149e-09
9.62435e-10
1.2955e-09
1.19426e-09
1.12476e-09
1.12407e-09
1.14033e-09
1.19079e-09
1.3206e-09
1.10682e-09
1.13807e-09
1.04134e-09
1.03152e-09
1.08819e-09
1.15669e-09
1.29212e-09
2.20632e-09
1.11706e-09
1.17904e-09
9.36163e-10
9.49514e-10
8.21987e-10
7.93857e-10
7.78454e-10
7.71288e-10
7.80689e-10
8.34639e-10
1.13494e-09
8.86317e-10
7.40949e-10
7.02933e-10
6.94906e-10
7.01025e-10
8.40427e-10
9.63158e-10
1.08602e-09
1.13315e-09
1.0428e-09
1.04962e-09
1.11272e-09
1.20896e-09
1.82131e-09
1.16804e-09
1.49914e-09
8.95772e-10
8.84658e-10
8.79419e-10
8.70026e-10
8.57787e-10
8.43608e-10
8.27919e-10
8.11316e-10
7.94176e-10
7.76154e-10
7.56819e-10
7.37165e-10
7.17861e-10
6.97969e-10
6.79741e-10
7.61542e-10
8.91323e-10
1.05292e-09
1.12178e-09
1.01742e-09
1.02565e-09
1.06484e-09
1.16322e-09
1.09453e-09
7.71554e-10
1.07866e-09
9.89458e-10
9.5929e-10
9.37855e-10
9.19684e-10
9.03216e-10
8.87645e-10
8.72483e-10
8.57611e-10
8.42851e-10
8.27688e-10
8.11705e-10
7.95448e-10
7.79207e-10
7.61976e-10
7.44837e-10
7.99968e-10
9.17898e-10
1.03209e-09
1.11539e-09
9.54717e-10
9.30674e-10
8.91858e-10
8.56378e-10
8.09256e-10
7.53011e-10
2.25801e-09
1.20193e-09
1.06212e-09
9.99256e-10
9.61793e-10
9.35785e-10
9.15558e-10
8.98482e-10
8.83267e-10
8.69125e-10
8.55226e-10
8.41063e-10
8.26889e-10
8.12868e-10
7.98104e-10
7.83547e-10
8.23999e-10
9.34541e-10
1.02344e-09
1.10771e-09
8.41907e-10
7.77099e-10
6.89121e-10
5.96838e-10
5.21501e-10
1.33197e-09
7.60805e-10
2.17045e-09
1.27674e-09
1.08745e-09
1.01126e-09
9.69295e-10
9.41757e-10
9.21297e-10
9.0465e-10
8.90151e-10
8.76585e-10
8.63253e-10
8.50168e-10
8.37384e-10
8.24067e-10
8.11023e-10
8.39756e-10
9.4489e-10
1.0131e-09
1.09942e-09
7.44457e-10
6.73956e-10
6.19308e-10
5.78522e-10
5.43209e-10
5.04386e-10
1.13404e-09
7.48088e-10
1.94494e-09
1.2229e-09
1.06461e-09
1.00104e-09
9.65804e-10
9.42355e-10
9.24636e-10
9.09922e-10
8.96621e-10
8.83859e-10
8.71467e-10
8.59411e-10
8.46945e-10
8.34734e-10
8.53405e-10
9.54861e-10
1.00177e-09
1.13464e-09
7.74519e-10
6.74455e-10
6.61126e-10
6.56952e-10
6.56021e-10
6.51198e-10
6.40449e-10
9.40031e-10
1.17583e-09
1.64904e-09
1.10454e-09
1.01917e-09
9.80678e-10
9.57466e-10
9.40769e-10
9.27173e-10
9.14936e-10
9.03148e-10
8.91578e-10
8.80171e-10
8.68294e-10
8.56595e-10
8.66677e-10
9.6599e-10
1.02257e-09
1.3681e-09
9.40876e-10
7.39324e-10
7.47359e-10
7.59448e-10
7.73457e-10
7.8813e-10
8.06957e-10
9.47244e-10
7.12512e-10
1.26549e-09
1.10341e-09
1.01303e-09
9.8121e-10
9.63534e-10
9.50888e-10
9.40234e-10
9.30177e-10
9.20025e-10
9.09638e-10
8.99034e-10
8.877e-10
8.76396e-10
8.79356e-10
9.77769e-10
1.20531e-09
1.13806e-09
1.28804e-09
8.26129e-10
8.44647e-10
8.65007e-10
8.88627e-10
9.19628e-10
9.74096e-10
1.27509e-09
8.02491e-10
1.29903e-09
1.04034e-09
9.86816e-10
9.71329e-10
9.62989e-10
9.56268e-10
9.49596e-10
9.42317e-10
9.34141e-10
9.25115e-10
9.1539e-10
9.04564e-10
8.93566e-10
8.90697e-10
9.88953e-10
1.17419e-09
7.12273e-10
1.27027e-09
9.11033e-10
9.37642e-10
9.66361e-10
1.00353e-09
1.06472e-09
1.22237e-09
1.48818e-09
7.29703e-10
1.09537e-09
9.70107e-10
9.62224e-10
9.62533e-10
9.6248e-10
9.60864e-10
9.57579e-10
9.52639e-10
9.46101e-10
9.38173e-10
9.2912e-10
9.18618e-10
9.07768e-10
8.99973e-10
9.98231e-10
1.09045e-09
7.48952e-10
1.12088e-09
9.8615e-10
1.02044e-09
1.06225e-09
1.13008e-09
1.29523e-09
1.69104e-09
8.62381e-10
1.16222e-09
9.36138e-10
9.43388e-10
9.55005e-10
9.62696e-10
9.66633e-10
9.67553e-10
9.65992e-10
9.62257e-10
9.56555e-10
9.49154e-10
9.40366e-10
9.2989e-10
9.18987e-10
9.06655e-10
1.00449e-09
1.09877e-09
8.76032e-10
1.08733e-09
1.04705e-09
1.09192e-09
1.16168e-09
1.33241e-09
1.7375e-09
9.10156e-10
1.11952e-09
9.02015e-10
9.25921e-10
9.47545e-10
9.61835e-10
9.70394e-10
9.74785e-10
9.76022e-10
9.74693e-10
9.71117e-10
9.65504e-10
9.58101e-10
9.49214e-10
9.38517e-10
9.27415e-10
9.10433e-10
1.00698e-09
1.11576e-09
9.50459e-10
1.07181e-09
1.09233e-09
1.15791e-09
1.30935e-09
2.07601e-09
9.24625e-10
1.07187e-09
8.816e-10
9.14002e-10
9.4162e-10
9.60753e-10
9.73011e-10
9.80177e-10
9.83621e-10
9.84212e-10
9.82425e-10
9.78507e-10
9.72622e-10
9.64968e-10
9.55827e-10
9.44824e-10
9.33496e-10
9.11385e-10
1.00549e-09
1.13211e-09
1.00739e-09
1.06786e-09
1.12875e-09
1.24324e-09
1.90881e-09
9.83139e-10
1.31335e-09
8.75429e-10
9.05607e-10
9.34684e-10
9.56912e-10
9.72605e-10
9.8271e-10
9.88448e-10
9.90902e-10
9.90792e-10
9.885e-10
9.84207e-10
9.78031e-10
9.70132e-10
9.60772e-10
9.49515e-10
9.38029e-10
9.10109e-10
1.00057e-09
1.14028e-09
1.03041e-09
1.06642e-09
1.16922e-09
1.47003e-09
1.24537e-09
8.96685e-10
8.86122e-10
9.00422e-10
9.26654e-10
9.49406e-10
9.67715e-10
9.8115e-10
9.89909e-10
9.94775e-10
9.96631e-10
9.96104e-10
9.93521e-10
9.89018e-10
9.82681e-10
9.74646e-10
9.65165e-10
9.5374e-10
9.42163e-10
9.07721e-10
9.9345e-10
1.13641e-09
1.03843e-09
1.07204e-09
1.23859e-09
1.61826e-09
6.82237e-10
9.60861e-10
9.0241e-10
9.21222e-10
9.41374e-10
9.59952e-10
9.75875e-10
9.88063e-10
9.96179e-10
1.00069e-09
1.00233e-09
1.00167e-09
9.99007e-10
9.94448e-10
9.8806e-10
9.79966e-10
9.70414e-10
9.5886e-10
9.4719e-10
9.05622e-10
9.85795e-10
1.12017e-09
1.03884e-09
1.09038e-09
1.44134e-09
1.30062e-09
9.81197e-10
9.24276e-10
9.22908e-10
9.37575e-10
9.53473e-10
9.69356e-10
9.83875e-10
9.95508e-10
1.0035e-09
1.00805e-09
1.00976e-09
1.00918e-09
1.00657e-09
1.00204e-09
9.95631e-10
9.87476e-10
9.77826e-10
9.66107e-10
9.5427e-10
9.05186e-10
9.7934e-10
1.08105e-09
1.02822e-09
1.12774e-09
1.43973e-09
6.66861e-10
1.0848e-09
9.36859e-10
9.4066e-10
9.51664e-10
9.64675e-10
9.78876e-10
9.92766e-10
1.00448e-09
1.01288e-09
1.01788e-09
1.01997e-09
1.01966e-09
1.01722e-09
1.01277e-09
1.00634e-09
9.98084e-10
9.88265e-10
9.76312e-10
9.64193e-10
9.07474e-10
9.75518e-10
1.01417e-09
1.00229e-09
1.19846e-09
1.49716e-09
7.09523e-10
9.91918e-10
9.50934e-10
9.54201e-10
9.62599e-10
9.73822e-10
9.873e-10
1.00146e-09
1.01413e-09
1.02372e-09
1.02982e-09
1.03278e-09
1.03309e-09
1.03105e-09
1.02679e-09
1.02039e-09
1.01203e-09
1.002e-09
9.89764e-10
9.77276e-10
9.13076e-10
9.7524e-10
9.30691e-10
9.62727e-10
1.36827e-09
1.5226e-09
1.08299e-09
9.77434e-10
9.57957e-10
9.60066e-10
9.66852e-10
9.77308e-10
9.91124e-10
1.00673e-09
1.02163e-09
1.03368e-09
1.04201e-09
1.04673e-09
1.04832e-09
1.04714e-09
1.0434e-09
1.03724e-09
1.02888e-09
1.0187e-09
1.00622e-09
9.93358e-10
9.22065e-10
9.78796e-10
8.54003e-10
9.23061e-10
1.52806e-09
7.90558e-10
1.31861e-09
9.64896e-10
9.52401e-10
9.53637e-10
9.59624e-10
9.70164e-10
9.8531e-10
1.00366e-09
1.02241e-09
1.03874e-09
1.05105e-09
1.05905e-09
1.06312e-09
1.06371e-09
1.06114e-09
1.05568e-09
1.04766e-09
1.03755e-09
1.02501e-09
1.01187e-09
9.34044e-10
9.85873e-10
8.00965e-10
9.02283e-10
1.29001e-09
4.47621e-10
1.06002e-09
9.40257e-10
9.30715e-10
9.31432e-10
9.37063e-10
9.48018e-10
9.64879e-10
9.86726e-10
1.01075e-09
1.03342e-09
1.05206e-09
1.06562e-09
1.07413e-09
1.07804e-09
1.07782e-09
1.07394e-09
1.0669e-09
1.05733e-09
1.04508e-09
1.03193e-09
9.48246e-10
9.95655e-10
7.70714e-10
9.12631e-10
1.22192e-09
7.15323e-10
9.68311e-10
9.01343e-10
8.93369e-10
8.93717e-10
8.98908e-10
9.09777e-10
9.27524e-10
9.52126e-10
9.81436e-10
1.01164e-09
1.03893e-09
1.06087e-09
1.07661e-09
1.08628e-09
1.09039e-09
1.0896e-09
1.08467e-09
1.07645e-09
1.0651e-09
1.05239e-09
9.63656e-10
1.00696e-09
7.50072e-10
9.57504e-10
1.20636e-09
8.13807e-10
8.972e-10
8.51872e-10
8.44884e-10
8.44844e-10
8.49186e-10
8.58884e-10
8.75603e-10
9.00394e-10
9.3253e-10
9.69047e-10
1.00562e-09
1.03825e-09
1.06442e-09
1.08316e-09
1.09455e-09
1.09927e-09
1.09832e-09
1.09287e-09
1.08344e-09
1.07192e-09
9.7911e-10
1.01837e-09
7.25033e-10
1.0478e-09
1.30596e-09
9.1625e-10
8.30514e-10
7.96368e-10
7.9014e-10
7.89762e-10
7.93017e-10
8.00716e-10
8.14606e-10
8.36485e-10
8.67227e-10
9.05804e-10
9.48956e-10
9.92074e-10
1.03076e-09
1.06201e-09
1.08448e-09
1.09822e-09
1.10415e-09
1.1037e-09
1.09786e-09
1.08877e-09
9.93273e-10
1.02823e-09
6.88859e-10
1.26274e-09
1.30373e-09
1.13863e-09
7.64324e-10
7.3666e-10
7.31074e-10
7.30527e-10
7.32844e-10
7.3849e-10
7.48955e-10
7.66171e-10
7.91992e-10
8.27379e-10
8.71416e-10
9.20849e-10
9.70762e-10
1.0161e-09
1.05311e-09
1.08001e-09
1.09681e-09
1.10474e-09
1.10515e-09
1.10048e-09
1.00441e-09
1.03444e-09
6.41757e-10
1.45051e-09
5.71025e-10
1.33722e-09
6.97982e-10
6.741e-10
6.68853e-10
6.68148e-10
6.69714e-10
6.73637e-10
6.81049e-10
6.93598e-10
7.1325e-10
7.42017e-10
7.81154e-10
8.30033e-10
8.85456e-10
9.42137e-10
9.94297e-10
1.03744e-09
1.06935e-09
1.08999e-09
1.10043e-09
1.10329e-09
1.00997e-09
1.03402e-09
5.92197e-10
1.05842e-09
3.74087e-10
9.53182e-10
6.35613e-10
6.13988e-10
6.08592e-10
6.07452e-10
6.08169e-10
6.10462e-10
6.15219e-10
6.2374e-10
6.37587e-10
6.58786e-10
6.89598e-10
7.31588e-10
7.84379e-10
8.44831e-10
9.07408e-10
9.65807e-10
1.01496e-09
1.05223e-09
1.07714e-09
1.09169e-09
1.00617e-09
1.023e-09
5.53089e-10
8.96514e-10
3.88866e-10
8.00057e-10
5.84102e-10
5.645e-10
5.58677e-10
5.56872e-10
5.56625e-10
5.57174e-10
5.59341e-10
5.64303e-10
5.7311e-10
5.87212e-10
6.08779e-10
6.40281e-10
6.83483e-10
7.38228e-10
8.01587e-10
8.68105e-10
9.31329e-10
9.85849e-10
1.02839e-09
1.05894e-09
9.88067e-10
9.97115e-10
5.30558e-10
7.91357e-10
3.92766e-10
7.03111e-10
5.4774e-10
5.30728e-10
5.24352e-10
5.21832e-10
5.20894e-10
5.19859e-10
5.19506e-10
5.21255e-10
5.25859e-10
5.34017e-10
5.47208e-10
5.67731e-10
5.98126e-10
6.4027e-10
6.94287e-10
7.57741e-10
8.25666e-10
8.91909e-10
9.50777e-10
9.99298e-10
9.50325e-10
9.53306e-10
5.21883e-10
7.16136e-10
3.90172e-10
6.37992e-10
5.26342e-10
5.12335e-10
5.0478e-10
5.01068e-10
5.00001e-10
4.98109e-10
4.95674e-10
4.9466e-10
4.95935e-10
4.99612e-10
5.06319e-10
5.17668e-10
5.35975e-10
5.63707e-10
6.02748e-10
6.53624e-10
7.1461e-10
7.8166e-10
8.49138e-10
9.12179e-10
8.90074e-10
8.9215e-10
5.18795e-10
6.611e-10
4.02811e-10
5.99598e-10
5.17455e-10
5.06517e-10
4.96613e-10
4.90134e-10
4.89208e-10
4.87741e-10
4.84309e-10
4.81271e-10
4.80012e-10
4.80446e-10
4.82544e-10
4.87198e-10
4.96129e-10
5.11537e-10
5.35697e-10
5.70518e-10
6.1689e-10
6.73904e-10
7.38425e-10
8.06086e-10
8.09075e-10
8.16977e-10
5.11714e-10
6.18276e-10
4.32307e-10
5.81932e-10
5.13722e-10
5.07278e-10
4.94987e-10
4.8326e-10
4.81451e-10
4.81651e-10
4.7918e-10
4.75751e-10
4.73201e-10
4.71607e-10
4.70693e-10
4.7091e-10
4.73459e-10
4.80102e-10
4.92825e-10
5.13603e-10
5.44251e-10
5.85812e-10
6.37834e-10
6.98105e-10
7.15976e-10
7.33216e-10
4.9826e-10
5.87929e-10
4.5608e-10
5.71004e-10
5.02438e-10
5.06595e-10
4.96865e-10
4.79201e-10
4.73149e-10
4.73723e-10
4.73307e-10
4.71382e-10
4.69213e-10
4.669e-10
4.64249e-10
4.61723e-10
4.60453e-10
4.61869e-10
4.67475e-10
4.78759e-10
4.97176e-10
5.24008e-10
5.59916e-10
6.04692e-10
6.25404e-10
6.50236e-10
4.89717e-10
5.81206e-10
4.50589e-10
5.53378e-10
4.72615e-10
4.98349e-10
5.01554e-10
4.85311e-10
4.72343e-10
4.67714e-10
4.66242e-10
4.65431e-10
4.64453e-10
4.62438e-10
4.5906e-10
4.55011e-10
4.51682e-10
4.50413e-10
4.52292e-10
4.58107e-10
4.68449e-10
4.83862e-10
5.04959e-10
5.32742e-10
5.50787e-10
5.80739e-10
5.00924e-10
6.14348e-10
4.73378e-10
5.43468e-10
4.1921e-10
4.7426e-10
4.94137e-10
4.96585e-10
4.85586e-10
4.72962e-10
4.64802e-10
4.61385e-10
4.60119e-10
4.58292e-10
4.54836e-10
4.50415e-10
4.46523e-10
4.44475e-10
4.44897e-10
4.47732e-10
4.5255e-10
4.59139e-10
4.6833e-10
4.82612e-10
5.00254e-10
5.34618e-10
5.19121e-10
8.12364e-10
7.86133e-10
6.53203e-10
3.49225e-10
4.05425e-10
4.39304e-10
4.6649e-10
4.80872e-10
4.75506e-10
4.6461e-10
4.5767e-10
4.54479e-10
4.51914e-10
4.48443e-10
4.4451e-10
4.41433e-10
4.40177e-10
4.4061e-10
4.41674e-10
4.42214e-10
4.42242e-10
4.44089e-10
4.51916e-10
4.70865e-10
5.05353e-10
4.88043e-10
7.52184e-10
7.0319e-10
1.10872e-09
4.09598e-10
3.06757e-10
3.64691e-10
3.99806e-10
4.31749e-10
4.44991e-10
4.43194e-10
4.38741e-10
4.35722e-10
4.33142e-10
4.30306e-10
4.27807e-10
4.26698e-10
4.27191e-10
4.28065e-10
4.27407e-10
4.24556e-10
4.21466e-10
4.22441e-10
4.32383e-10
4.45835e-10
4.68472e-10
2.34213e-10
5.48329e-10
6.22362e-10
7.65295e-10
9.20886e-10
4.84267e-10
4.00526e-10
4.0807e-10
4.17192e-10
4.2499e-10
4.27061e-10
4.26355e-10
4.25061e-10
4.2336e-10
4.21703e-10
4.21025e-10
4.21901e-10
4.23331e-10
4.22926e-10
4.19159e-10
4.1381e-10
4.11411e-10
4.15868e-10
4.27468e-10
4.34439e-10
4.48296e-10
3.37645e-10
2.46966e-10
8.78701e-10
6.46833e-10
1.00215e-09
7.76085e-10
5.51399e-10
4.78435e-10
4.46705e-10
4.30938e-10
4.24037e-10
4.21489e-10
4.20284e-10
4.19455e-10
4.1946e-10
4.20952e-10
4.23398e-10
4.24178e-10
4.20708e-10
4.14164e-10
4.09677e-10
4.12586e-10
4.21682e-10
4.14128e-10
4.26986e-10
4.64131e-10
2.29782e-10
3.31644e-10
5.6456e-10
1.05706e-09
5.68758e-10
5.65072e-10
4.76944e-10
4.52502e-10
4.30686e-10
4.09195e-10
3.96316e-10
3.91293e-10
3.89916e-10
3.90623e-10
3.93296e-10
3.97684e-10
4.01458e-10
4.00804e-10
3.95311e-10
3.90234e-10
3.91934e-10
4.02342e-10
4.13153e-10
3.92685e-10
3.70467e-10
3.87251e-10
2.21095e-10
5.3781e-10
2.82615e-10
3.20471e-10
7.71855e-10
4.90163e-10
2.03448e-10
1.54389e-10
2.08103e-10
2.06034e-10
1.85197e-10
1.76111e-10
1.75065e-10
1.6959e-10
1.55901e-10
1.4179e-10
1.37363e-10
1.44242e-10
1.51761e-10
1.45853e-10
1.30656e-10
1.2714e-10
1.41763e-10
2.05883e-10
2.03793e-10
2.4536e-10
2.46958e-09
2.69091e-09
2.86313e-09
3.45946e-09
3.02955e-09
2.81122e-09
2.75306e-09
2.70644e-09
2.69284e-09
2.69901e-09
2.70564e-09
2.70804e-09
2.71119e-09
2.72063e-09
2.7356e-09
2.74905e-09
2.75322e-09
2.7501e-09
2.75452e-09
2.78021e-09
2.81891e-09
2.81457e-09
2.71658e-09
2.71237e-09
3.10881e-09
3.26986e-09
9.0999e-09
1.51764e-08
1.54616e-08
1.62568e-08
1.63398e-08
1.65266e-08
1.66029e-08
1.67053e-08
1.68747e-08
1.70843e-08
1.70849e-08
1.70405e-08
1.70173e-08
1.70092e-08
1.70129e-08
1.70206e-08
1.70189e-08
1.70013e-08
1.69793e-08
1.69611e-08
1.69332e-08
1.68963e-08
1.68642e-08
1.56545e-08
1.56102e-08
9.5691e-09
4.29112e-07
4.29591e-07
4.28719e-07
4.28559e-07
4.28815e-07
4.28897e-07
4.28883e-07
4.28934e-07
4.29026e-07
4.29106e-07
4.2917e-07
4.29228e-07
4.29286e-07
4.29339e-07
4.29383e-07
4.29423e-07
4.2947e-07
4.29527e-07
4.29583e-07
4.29621e-07
4.29639e-07
4.29688e-07
4.29829e-07
4.29901e-07
4.29694e-07
4.28838e-07
1.14898e-08
1.1333e-08
1.13298e-08
1.12933e-08
1.12906e-08
1.12871e-08
1.12836e-08
1.12811e-08
1.12786e-08
1.12752e-08
1.1277e-08
1.12797e-08
1.12819e-08
1.12836e-08
1.12848e-08
1.12856e-08
1.12868e-08
1.12885e-08
1.12906e-08
1.12923e-08
1.12938e-08
1.12956e-08
1.12979e-08
1.13302e-08
1.1333e-08
1.14897e-08
3.06351e-10
3.13019e-10
3.02858e-10
3.02515e-10
3.02423e-10
3.02294e-10
3.02279e-10
3.02288e-10
3.0229e-10
3.02286e-10
3.02275e-10
3.02268e-10
3.02268e-10
3.02274e-10
3.02289e-10
3.02319e-10
3.02357e-10
3.02386e-10
3.02387e-10
3.0239e-10
3.02481e-10
3.02751e-10
3.03142e-10
3.03427e-10
3.13449e-10
3.0588e-10
2.49163e-10
2.40592e-10
2.41089e-10
2.40597e-10
2.40494e-10
2.40408e-10
2.40394e-10
2.404e-10
2.40402e-10
2.40402e-10
2.40405e-10
2.4041e-10
2.40417e-10
2.40423e-10
2.40437e-10
2.40468e-10
2.40515e-10
2.40548e-10
2.40523e-10
2.40417e-10
2.4024e-10
2.40008e-10
2.40034e-10
2.403e-10
2.40137e-10
2.48993e-10
9.27291e-12
1.06261e-11
1.03964e-11
1.07805e-11
1.0709e-11
1.06949e-11
1.06873e-11
1.0686e-11
1.069e-11
1.06986e-11
1.07098e-11
1.07196e-11
1.07233e-11
1.07214e-11
1.07245e-11
1.07487e-11
1.08008e-11
1.08691e-11
1.09391e-11
1.0999e-11
1.09645e-11
1.0597e-11
1.04405e-11
9.98936e-12
1.02683e-11
1.02612e-11
7.0657e-12
6.21174e-12
6.47382e-12
6.22419e-12
6.19469e-12
6.18311e-12
6.19052e-12
6.19321e-12
6.18496e-12
6.16927e-12
6.15145e-12
6.13786e-12
6.13435e-12
6.14063e-12
6.14706e-12
6.14329e-12
6.13392e-12
6.1266e-12