/*--------------------------------*- C++ -*----------------------------------*\
  =========                 |
  \\      /  F ield         | OpenFOAM: The Open Source CFD Toolbox
   \\    /   O peration     | Website:  https://openfoam.org
    \\  /    A nd           | Version:  7
     \\/     M anipulation  |
\*---------------------------------------------------------------------------*/
FoamFile
{
    version     2.0;
    format      ascii;
    class       volScalarField;
    location    "0.01";
    object      nu.particles-SchneiderbauerFrictional;
}
// * * * * * * * * * * * * * * * * * * * * * * * * * * * * * * * * * * * * * //

dimensions      [0 2 -1 0 0 0 0];

internalField   nonuniform List<scalar> 
10790
(
1.37714e-10
1.77336e-10
2.35198e-10
2.97618e-10
3.80153e-10
5.01431e-10
6.75847e-10
9.46438e-10
1.43305e-09
2.20135e-09
4.53033e-09
9.65474e-09
1.24208e-08
1.53504e-07
4.97118e-08
4.41394e-08
4.15675e-08
4.00031e-08
3.90715e-08
3.85447e-08
3.82679e-08
3.81336e-08
3.80654e-08
3.80153e-08
3.79731e-08
3.80619e-08
1.25616e-10
1.30252e-10
1.31817e-10
1.38735e-10
1.62206e-10
2.03855e-10
2.74758e-10
4.10379e-10
6.53183e-10
1.26814e-09
4.07191e-09
5.32382e-09
3.25325e-09
1.06545e-07
3.12242e-08
2.21077e-08
1.55951e-08
1.15052e-08
8.75379e-09
6.80217e-09
5.39495e-09
4.37971e-09
3.66482e-09
3.22253e-09
2.91792e-09
2.64798e-09
1.19192e-10
1.23247e-10
1.2493e-10
1.31681e-10
1.52482e-10
1.80469e-10
2.18399e-10
3.0337e-10
4.43442e-10
7.36312e-10
2.5874e-09
2.74144e-09
1.99864e-09
7.62163e-08
2.20489e-08
1.87456e-08
1.5099e-08
1.2283e-08
1.01016e-08
8.42703e-09
7.15372e-09
6.18898e-09
5.45092e-09
4.94604e-09
4.60428e-09
4.39895e-09
1.09253e-10
1.10546e-10
1.09531e-10
1.16988e-10
1.45864e-10
1.80355e-10
1.99619e-10
1.99434e-10
2.5236e-10
4.97173e-10
2.36107e-09
2.62322e-09
1.7308e-09
7.71762e-08
1.71212e-08
1.52994e-08
1.30467e-08
1.1026e-08
9.28397e-09
7.83693e-09
6.67341e-09
5.77158e-09
5.06966e-09
4.57236e-09
4.22043e-09
3.99267e-09
9.8124e-11
9.78422e-11
9.12445e-11
8.75302e-11
1.07118e-10
1.54539e-10
2.09619e-10
1.94303e-10
1.57622e-10
2.77212e-10
2.0351e-09
2.42175e-09
1.67479e-09
7.25551e-08
1.42059e-08
1.28222e-08
1.13849e-08
9.87782e-09
8.44541e-09
7.18459e-09
6.11613e-09
5.24123e-09
4.54499e-09
4.03457e-09
3.69967e-09
3.48512e-09
8.73372e-11
9.12381e-11
8.76723e-11
8.68102e-11
9.16771e-11
1.05999e-10
1.64758e-10
2.22877e-10
1.97177e-10
2.14983e-10
1.75275e-09
2.13473e-09
1.57813e-09
6.45359e-08
1.22393e-08
1.12559e-08
1.02085e-08
8.99079e-09
7.76801e-09
6.63796e-09
5.64536e-09
4.78215e-09
4.06976e-09
3.51979e-09
3.1265e-09
2.89874e-09
6.93268e-11
7.58525e-11
7.55257e-11
8.77669e-11
9.41219e-11
9.00109e-11
1.02935e-10
1.65578e-10
1.83869e-10
1.82277e-10
1.49512e-09
1.91121e-09
1.49283e-09
5.45278e-08
1.07921e-08
1.01961e-08
9.35251e-09
8.31275e-09
7.23378e-09
6.18906e-09
5.24756e-09
4.39195e-09
3.62417e-09
2.99303e-09
2.51821e-09
2.24775e-09
5.33523e-11
5.51359e-11
5.37629e-11
8.21686e-11
8.94988e-11
6.78216e-11
5.29499e-11
1.02715e-10
1.62033e-10
1.85888e-10
1.27558e-09
2.33769e-09
1.52747e-09
4.11894e-08
9.91442e-09
9.41645e-09
8.68026e-09
7.77803e-09
6.8155e-09
5.82946e-09
4.88134e-09
4.0035e-09
3.18862e-09
2.45137e-09
1.85128e-09
1.48166e-09
5.12667e-11
4.45537e-11
3.42993e-11
7.0549e-11
9.12727e-11
7.92e-11
5.66058e-11
8.53738e-11
1.47105e-10
1.95155e-10
1.12605e-09
1.43529e-09
1.93947e-09
1.66318e-08
9.50382e-09
9.26567e-09
8.97933e-09
8.68634e-09
8.43922e-09
8.24066e-09
8.10255e-09
8.02389e-09
7.98729e-09
7.9785e-09
7.97626e-09
7.9504e-09
5.21756e-11
3.98327e-11
3.04932e-11
5.46371e-11
8.07793e-11
8.45814e-11
6.89224e-11
8.51157e-11
1.27955e-10
1.62609e-10
1.89494e-10
1.55336e-09
2.19227e-10
2.54391e-08
7.4762e-09
1.31192e-08
2.13383e-08
2.79644e-08
3.31552e-08
3.7168e-08
4.05061e-08
4.33428e-08
4.56367e-08
4.73129e-08
4.82003e-08
4.80496e-08
4.31903e-11
2.45128e-11
3.26633e-11
3.73379e-11
5.73242e-11
7.39342e-11
7.16187e-11
8.4986e-11
1.06503e-10
1.54612e-10
2.43054e-10
4.88573e-10
8.93423e-10
6.28482e-10
5.22775e-10
6.03462e-10
6.66502e-10
7.27545e-10
8.12505e-10
9.00005e-10
9.85766e-10
1.06603e-09
1.13465e-09
1.18651e-09
1.21479e-09
1.21238e-09
3.43168e-11
2.38338e-11
3.92951e-11
2.6626e-11
3.23074e-11
5.71514e-11
7.08652e-11
8.67195e-11
9.72248e-11
1.23124e-10
1.7141e-10
2.47248e-10
5.54632e-10
2.05943e-10
6.14866e-10
9.33778e-10
1.0671e-09
1.17835e-09
1.31741e-09
1.43757e-09
1.54556e-09
1.63658e-09
1.70754e-09
1.76074e-09
1.79468e-09
1.80435e-09
2.80443e-11
3.58685e-11
3.991e-11
2.50231e-11
2.17295e-11
4.19295e-11
6.30872e-11
8.0037e-11
8.78125e-11
9.66557e-11
1.17852e-10
1.41276e-10
1.27666e-10
2.70477e-10
9.08012e-11
4.04233e-10
6.55475e-10
8.26464e-10
9.66439e-10
1.08088e-09
1.17895e-09
1.26338e-09
1.33339e-09
1.38314e-09
1.41478e-09
1.4252e-09
2.13384e-11
3.56571e-11
2.85665e-11
2.02529e-11
1.82139e-11
2.9328e-11
4.89013e-11
6.33982e-11
7.07941e-11
7.62583e-11
8.37262e-11
9.32986e-11
9.55102e-11
8.47994e-11
6.70135e-11
4.92995e-11
3.49589e-11
2.72319e-11
3.027e-11
4.13966e-11
5.34013e-11
6.42728e-11
7.65712e-11
8.36865e-11
8.71244e-11
8.88471e-11
1.64292e-11
2.48072e-11
1.41933e-11
1.40584e-11
1.51495e-11
2.25394e-11
3.77234e-11
4.70919e-11
5.09344e-11
5.42903e-11
5.82768e-11
6.65429e-11
7.04405e-11
6.49925e-11
5.45564e-11
4.67798e-11
4.00074e-11
3.24645e-11
2.38521e-11
1.75483e-11
1.63198e-11
1.30118e-11
1.08336e-11
1.20325e-11
7.90368e-12
7.89548e-12
1.10679e-11
1.13729e-11
9.26375e-12
1.1111e-11
1.527e-11
2.10496e-11
3.14796e-11
3.62682e-11
3.7018e-11
3.7347e-11
3.7941e-11
4.13481e-11
4.4985e-11
4.67983e-11
4.55506e-11
4.35409e-11
4.03692e-11
3.51521e-11
2.6841e-11
1.79871e-11
1.51522e-11
1.43928e-11
9.09171e-12
6.17445e-12
6.4156e-12
6.50548e-12
1.46068e-11
1.19857e-11
1.23698e-11
1.23391e-11
1.83101e-11
2.2595e-11
2.85008e-11
3.29988e-11
3.36561e-11
3.31793e-11
3.37047e-11
3.5596e-11
3.81474e-11
3.93147e-11
3.80073e-11
3.52067e-11
3.1729e-11
2.77672e-11
2.30121e-11
1.69985e-11
1.24027e-11
1.0122e-11
7.81372e-12
6.55151e-12
5.99031e-12
5.49573e-12
2.43916e-11
2.01638e-11
1.76383e-11
1.84219e-11
2.26919e-11
2.53101e-11
2.65959e-11
2.99251e-11
3.38507e-11
3.66555e-11
3.94243e-11
4.1647e-11
4.30919e-11
4.22503e-11
3.86028e-11
3.28233e-11
2.63707e-11
2.0565e-11
1.58377e-11
1.23434e-11
9.86096e-12
8.16428e-12
7.11111e-12
6.19038e-12
5.18208e-12
4.4729e-12
2.85976e-11
2.38544e-11
2.25758e-11
2.53664e-11
2.75061e-11
2.77853e-11
2.66868e-11
2.73558e-11
3.06097e-11
3.37293e-11
3.59803e-11
3.69238e-11
3.66799e-11
3.47429e-11
3.07981e-11
2.51199e-11
1.88696e-11
1.37995e-11
1.0372e-11
8.04955e-12
7.10445e-12
6.6444e-12
6.30115e-12
5.80967e-12
4.80005e-12
4.07379e-12
2.48307e-11
2.15168e-11
2.23227e-11
2.71047e-11
2.96478e-11
2.88179e-11
2.68601e-11
2.59748e-11
2.69487e-11
2.81858e-11
2.85814e-11
2.78005e-11
2.62398e-11
2.41212e-11
2.14475e-11
1.79644e-11
1.36952e-11
9.90327e-12
7.71863e-12
6.38109e-12
6.04687e-12
6.10654e-12
6.00229e-12
5.81907e-12
4.98698e-12
4.44362e-12
1.67382e-11
1.54416e-11
1.6947e-11
2.19573e-11
2.56475e-11
2.60208e-11
2.49724e-11
2.42633e-11
2.4297e-11
2.42889e-11
2.34691e-11
2.17421e-11
1.95875e-11
1.75036e-11
1.588e-11
1.4501e-11
1.26465e-11
1.0146e-11
7.98068e-12
6.83152e-12
6.54083e-12
6.45654e-12
6.30933e-12
6.20158e-12
5.5526e-12
5.28988e-12
1.01209e-11
1.02843e-11
1.16094e-11
1.45052e-11
1.75598e-11
1.93468e-11
2.01991e-11
2.08302e-11
2.13669e-11
2.15146e-11
2.08942e-11
1.94417e-11
1.74912e-11
1.54979e-11
1.39455e-11
1.29461e-11
1.20937e-11
1.07863e-11
9.20784e-12
8.14494e-12
7.68035e-12
7.29611e-12
6.88832e-12
6.57044e-12
5.99212e-12
6.07282e-12
7.89816e-12
8.50549e-12
9.84669e-12
1.06165e-11
1.15158e-11
1.34071e-11
1.5411e-11
1.69785e-11
1.80209e-11
1.85716e-11
1.8571e-11
1.79835e-11
1.69239e-11
1.56018e-11
1.43458e-11
1.33552e-11
1.25121e-11
1.14892e-11
1.0207e-11
9.08874e-12
8.32334e-12
7.67422e-12
7.09589e-12
6.69e-12
6.29611e-12
6.71521e-12
9.20568e-12
9.42812e-12
1.03619e-11
1.08356e-11
1.09897e-11
1.21652e-11
1.37137e-11
1.48836e-11
1.55575e-11
1.5911e-11
1.60084e-11
1.58273e-11
1.53284e-11
1.45679e-11
1.37035e-11
1.28588e-11
1.20344e-11
1.11258e-11
1.00671e-11
9.07433e-12
8.34241e-12
7.7696e-12
7.31578e-12
7.03164e-12
6.83908e-12
7.49961e-12
1.24056e-11
1.20553e-11
1.2325e-11
1.28524e-11
1.3219e-11
1.38859e-11
1.44831e-11
1.47316e-11
1.46922e-11
1.45411e-11
1.434e-11
1.40383e-11
1.36036e-11
1.30287e-11
1.23146e-11
1.15777e-11
1.08932e-11
1.02016e-11
9.39312e-12
8.60071e-12
8.06866e-12
7.73624e-12
7.50919e-12
7.37503e-12
7.3262e-12
8.27419e-12
1.57066e-11
1.47945e-11
1.48374e-11
1.54263e-11
1.57848e-11
1.60095e-11
1.59479e-11
1.55822e-11
1.5049e-11
1.44966e-11
1.3974e-11
1.34645e-11
1.28977e-11
1.22214e-11
1.14897e-11
1.07769e-11
1.01507e-11
9.60987e-12
9.04386e-12
8.47679e-12
8.06733e-12
7.82071e-12
7.67754e-12
7.59203e-12
7.69393e-12
8.89443e-12
1.80727e-11
1.66384e-11
1.6736e-11
1.74355e-11
1.76693e-11
1.75202e-11
1.70542e-11
1.63967e-11
1.56802e-11
1.5004e-11
1.43897e-11
1.37731e-11
1.30531e-11
1.22835e-11
1.15628e-11
1.08961e-11
1.03244e-11
9.86318e-12
9.46325e-12
9.09516e-12
8.79555e-12
8.57745e-12
8.41398e-12
8.24101e-12
8.39666e-12
9.59857e-12
1.93519e-11
1.75357e-11
1.76308e-11
1.82803e-11
1.83358e-11
1.798e-11
1.73697e-11
1.66514e-11
1.59218e-11
1.52314e-11
1.4585e-11
1.39422e-11
1.32765e-11
1.26183e-11
1.19748e-11
1.13115e-11
1.06509e-11
1.01268e-11
9.77867e-12
9.51457e-12
9.28762e-12
9.08846e-12
8.88732e-12
8.62993e-12
8.81054e-12
1.00628e-11
1.98647e-11
1.78551e-11
1.7732e-11
1.81191e-11
1.79239e-11
1.74423e-11
1.68314e-11
1.61873e-11
1.55534e-11
1.49489e-11
1.43712e-11
1.3795e-11
1.32011e-11
1.2602e-11
1.19997e-11
1.13766e-11
1.07429e-11
1.01902e-11
9.7326e-12
9.31623e-12
8.93406e-12
8.59263e-12
8.26828e-12
7.97901e-12
8.30338e-12
9.84646e-12
1.98748e-11
1.78037e-11
1.73302e-11
1.73891e-11
1.69505e-11
1.63751e-11
1.57781e-11
1.5203e-11
1.4656e-11
1.41424e-11
1.36624e-11
1.31983e-11
1.27269e-11
1.22464e-11
1.17638e-11
1.12653e-11
1.07357e-11
1.01957e-11
9.65338e-12
9.11067e-12
8.58658e-12
8.10374e-12
7.66123e-12
7.33677e-12
7.70152e-12
9.32659e-12
1.93795e-11
1.73265e-11
1.65706e-11
1.63962e-11
1.58159e-11
1.51953e-11
1.46042e-11
1.40546e-11
1.354e-11
1.30634e-11
1.26325e-11
1.22389e-11
1.18588e-11
1.14781e-11
1.1099e-11
1.07107e-11
1.02918e-11
9.83643e-12
9.35889e-12
8.8644e-12
8.36277e-12
7.88125e-12
7.44063e-12
7.11014e-12
7.40886e-12
8.80836e-12
1.82736e-11
1.63301e-11
1.54954e-11
1.52467e-11
1.46582e-11
1.40576e-11
1.34874e-11
1.29511e-11
1.2445e-11
1.19749e-11
1.15533e-11
1.11806e-11
1.08378e-11
1.0506e-11
1.01782e-11
9.83947e-12
9.4745e-12
9.08223e-12
8.66982e-12
8.23754e-12
7.79386e-12
7.36358e-12
6.98317e-12
6.69767e-12
6.93691e-12
8.25489e-12
1.6607e-11
1.48763e-11
1.41509e-11
1.39596e-11
1.34684e-11
1.29514e-11
1.2439e-11
1.19386e-11
1.14552e-11
1.09977e-11
1.05801e-11
1.0208e-11
9.86988e-12
9.54803e-12
9.23358e-12
8.91509e-12
8.57567e-12
8.2073e-12
7.81645e-12
7.41497e-12
7.01791e-12
6.64536e-12
6.34019e-12
6.12759e-12
6.34825e-12
7.63761e-12
1.46129e-11
1.31603e-11
1.26374e-11
1.25663e-11
1.22248e-11
1.18362e-11
1.14246e-11
1.10014e-11
1.0576e-11
1.01586e-11
9.76206e-12
9.39455e-12
9.05166e-12
8.72094e-12
8.39461e-12
8.06712e-12
7.72835e-12
7.37413e-12
7.01044e-12
6.64844e-12
6.30383e-12
5.99303e-12
5.75312e-12
5.60983e-12
5.87176e-12
7.03456e-12
1.25731e-11
1.14012e-11
1.108e-11
1.11275e-11
1.09376e-11
1.06912e-11
1.04083e-11
1.00984e-11
9.76907e-12
9.42713e-12
9.08203e-12
8.74214e-12
8.40803e-12
8.07428e-12
7.73798e-12
7.39986e-12
7.05772e-12
6.71219e-12
6.37034e-12
6.0428e-12
5.74388e-12
5.48661e-12
5.2937e-12
5.19002e-12
5.4803e-12
6.54216e-12
1.06989e-11
9.76247e-12
9.58756e-12
9.7163e-12
9.64638e-12
9.5252e-12
9.36891e-12
9.18278e-12
8.96838e-12
8.72658e-12
8.46153e-12
8.17945e-12
7.88339e-12
7.57337e-12
7.25162e-12
6.92393e-12
6.59468e-12
6.26874e-12
5.95394e-12
5.6602e-12
5.39917e-12
5.18163e-12
5.01944e-12
4.9319e-12
5.22935e-12
6.21049e-12
9.09727e-12
8.33364e-12
8.2397e-12
8.40714e-12
8.41501e-12
8.38493e-12
8.32917e-12
8.24855e-12
8.1396e-12
7.99782e-12
7.82207e-12
7.61544e-12
7.38154e-12
7.12341e-12
6.84621e-12
6.558e-12
6.26653e-12
5.97907e-12
5.70366e-12
5.44945e-12
5.22562e-12
5.04086e-12
4.90142e-12
4.82007e-12
5.11432e-12
6.03048e-12
7.79907e-12
7.15005e-12
7.08776e-12
7.26422e-12
7.31473e-12
7.3421e-12
7.35396e-12
7.34737e-12
7.31605e-12
7.25295e-12
7.154e-12
7.02006e-12
6.85467e-12
6.66206e-12
6.44813e-12
6.22064e-12
5.98741e-12
5.7557e-12
5.53258e-12
5.32597e-12
5.14328e-12
4.99114e-12
4.87326e-12
4.79724e-12
5.08746e-12
5.95487e-12
6.79338e-12
6.21368e-12
6.15702e-12
6.3281e-12
6.39871e-12
6.45838e-12
6.50984e-12
6.54698e-12
6.56263e-12
6.55001e-12
6.505e-12
6.42792e-12
6.32226e-12
6.19248e-12
6.04388e-12
5.88258e-12
5.71463e-12
5.54563e-12
5.38069e-12
5.2256e-12
5.0862e-12
4.96742e-12
4.87181e-12
4.80373e-12
5.09144e-12
5.9257e-12
6.05125e-12
5.50913e-12
5.44967e-12
5.61113e-12
5.68885e-12
5.76281e-12
5.83175e-12
5.88787e-12
5.92471e-12
5.93763e-12
5.92432e-12
5.88567e-12
5.82496e-12
5.74613e-12
5.65325e-12
5.55046e-12
5.44169e-12
5.33048e-12
5.21984e-12
5.11314e-12
5.01457e-12
4.92758e-12
4.85426e-12
4.79713e-12
5.08527e-12
5.89916e-12
5.53792e-12
5.01304e-12
4.94999e-12
5.10202e-12
5.17814e-12
5.25134e-12
5.31907e-12
5.37426e-12
5.41269e-12
5.43258e-12
5.43378e-12
5.41781e-12
5.38739e-12
5.34536e-12
5.29422e-12
5.23629e-12
5.17375e-12
5.1085e-12
5.04194e-12
4.9755e-12
4.91177e-12
4.85301e-12
4.80082e-12
4.75677e-12
5.04768e-12
5.84925e-12
5.21688e-12
4.69727e-12
4.63039e-12
4.77305e-12
4.83898e-12
4.8977e-12
4.94883e-12
4.98842e-12
5.01524e-12
5.02992e-12
5.03381e-12
5.02855e-12
5.01601e-12
4.99769e-12
4.97462e-12
4.94759e-12
4.91746e-12
4.8851e-12
4.85091e-12
4.81508e-12
4.77892e-12
4.7437e-12
4.71038e-12
4.67994e-12
4.97399e-12
5.76702e-12
5.04792e-12
4.52774e-12
4.45468e-12
4.5849e-12
4.63167e-12
4.66561e-12
4.69081e-12
4.70723e-12
4.71611e-12
4.71946e-12
4.71903e-12
4.71614e-12
4.71172e-12
4.70621e-12
4.69953e-12
4.69139e-12
4.68174e-12
4.67075e-12
4.65831e-12
4.64397e-12
4.6281e-12
4.6112e-12
4.59358e-12
4.57569e-12
4.8732e-12
5.65791e-12
4.98277e-12
4.46113e-12
4.37756e-12
4.49015e-12
4.51189e-12
4.51763e-12
4.51584e-12
4.50933e-12
4.50056e-12
4.49169e-12
4.48417e-12
4.47869e-12
4.47549e-12
4.47439e-12
4.47476e-12
4.47579e-12
4.47689e-12
4.47781e-12
4.47814e-12
4.47714e-12
4.47458e-12
4.47042e-12
4.46442e-12
4.45657e-12
4.75558e-12
5.53014e-12
4.96455e-12
4.44397e-12
4.34625e-12
4.43842e-12
4.43617e-12
4.41842e-12
4.39611e-12
4.37304e-12
4.35165e-12
4.33349e-12
4.31935e-12
4.30938e-12
4.30344e-12
4.30114e-12
4.30185e-12
4.30473e-12
4.30905e-12
4.31436e-12
4.3201e-12
4.32543e-12
4.3298e-12
4.3328e-12
4.33382e-12
4.33248e-12
4.63009e-12
5.39159e-12
4.93604e-12
4.42066e-12
4.30975e-12
4.38439e-12
4.36617e-12
4.33537e-12
4.30315e-12
4.2728e-12
4.24593e-12
4.22331e-12
4.20509e-12
4.19114e-12
4.1812e-12
4.17505e-12
4.17232e-12
4.1725e-12
4.17501e-12
4.17942e-12
4.18516e-12
4.19141e-12
4.19751e-12
4.20282e-12
4.20658e-12
4.20818e-12
4.50143e-12
5.24697e-12
4.85477e-12
4.34943e-12
4.23205e-12
4.29665e-12
4.2737e-12
4.24157e-12
4.21008e-12
4.18126e-12
4.15571e-12
4.13353e-12
4.11455e-12
4.09859e-12
4.08554e-12
4.07546e-12
4.06837e-12
4.06417e-12
4.06259e-12
4.06338e-12
4.06607e-12
4.06994e-12
4.07436e-12
4.07868e-12
4.08211e-12
4.084e-12
4.37064e-12
5.09785e-12
4.70609e-12
4.21574e-12
4.10118e-12
4.16398e-12
4.14609e-12
4.12157e-12
4.09824e-12
4.07685e-12
4.05722e-12
4.03908e-12
4.02224e-12
4.00668e-12
3.99255e-12
3.98016e-12
3.96989e-12
3.96195e-12
3.95642e-12
3.95324e-12
3.9521e-12
3.95247e-12
3.95385e-12
3.95571e-12
3.95735e-12
3.95823e-12
4.23705e-12
4.94429e-12
4.50509e-12
4.03353e-12
3.92901e-12
3.99572e-12
3.98823e-12
3.97526e-12
3.96282e-12
3.95077e-12
3.9386e-12
3.92599e-12
3.91293e-12
3.89962e-12
3.88645e-12
3.87391e-12
3.86253e-12
3.85275e-12
3.84481e-12
3.83884e-12
3.83471e-12
3.83209e-12
3.83066e-12
3.83008e-12
3.82986e-12
3.82963e-12
4.1003e-12
4.78652e-12
4.28584e-12
3.83435e-12
3.74233e-12
3.81487e-12
3.81809e-12
3.81564e-12
3.81243e-12
3.80805e-12
3.80206e-12
3.79435e-12
3.78512e-12
3.77477e-12
3.76379e-12
3.75271e-12
3.74207e-12
3.7323e-12
3.72375e-12
3.71661e-12
3.71089e-12
3.70645e-12
3.70318e-12
3.70093e-12
3.69946e-12
3.69859e-12
3.9612e-12
4.62563e-12
4.08412e-12
3.6511e-12
3.56977e-12
3.64683e-12
3.65728e-12
3.66101e-12
3.6627e-12
3.66222e-12
3.65945e-12
3.65457e-12
3.64796e-12
3.64006e-12
3.63136e-12
3.62226e-12
3.61318e-12
3.60446e-12
3.59639e-12
3.58918e-12
3.5829e-12
3.5776e-12
3.57332e-12
3.57012e-12
3.56795e-12
3.56685e-12
3.82143e-12
4.46337e-12
3.92254e-12
3.50483e-12
3.43019e-12
3.50857e-12
3.52118e-12
3.52587e-12
3.52771e-12
3.52714e-12
3.52442e-12
3.51994e-12
3.51414e-12
3.50742e-12
3.5001e-12
3.49241e-12
3.48458e-12
3.47679e-12
3.46922e-12
3.46205e-12
3.45542e-12
3.44947e-12
3.4444e-12
3.4404e-12
3.43761e-12
3.43623e-12
3.68248e-12
4.30114e-12
3.80415e-12
3.3989e-12
3.32689e-12
3.40302e-12
3.41336e-12
3.41499e-12
3.41364e-12
3.41024e-12
3.40535e-12
3.39941e-12
3.39282e-12
3.38581e-12
3.37853e-12
3.37102e-12
3.3633e-12
3.35542e-12
3.34748e-12
3.33963e-12
3.33202e-12
3.3249e-12
3.31857e-12
3.31335e-12
3.30952e-12
3.30737e-12
3.54466e-12
4.13921e-12
3.71502e-12
3.32102e-12
3.24886e-12
3.32012e-12
3.32584e-12
3.32275e-12
3.31707e-12
3.31e-12
3.30215e-12
3.29393e-12
3.28558e-12
3.27717e-12
3.26868e-12
3.25999e-12
3.25101e-12
3.24171e-12
3.23215e-12
3.22247e-12
3.21289e-12
3.20372e-12
3.19538e-12
3.18825e-12
3.18272e-12
3.17915e-12
3.40673e-12
3.97634e-12
3.63264e-12
3.25055e-12
3.17739e-12
3.24282e-12
3.24392e-12
3.23671e-12
3.22751e-12
3.21751e-12
3.20721e-12
3.19688e-12
3.18657e-12
3.17624e-12
3.16573e-12
3.15489e-12
3.14356e-12
3.13173e-12
3.11949e-12
3.10702e-12
3.09463e-12
3.0827e-12
3.07172e-12
3.06216e-12
3.05445e-12
3.04904e-12
3.26628e-12
3.81018e-12
3.53558e-12
3.16739e-12
3.09421e-12
3.1543e-12
3.1524e-12
3.14303e-12
3.13219e-12
3.12085e-12
3.1093e-12
3.09761e-12
3.08573e-12
3.0735e-12
3.06076e-12
3.04735e-12
3.03319e-12
3.01832e-12
3.00293e-12
2.9873e-12
2.97181e-12
2.95694e-12
2.94323e-12
2.93121e-12
2.92134e-12
2.91409e-12
3.12067e-12
3.63822e-12
3.41044e-12
3.05873e-12
2.98754e-12
3.04349e-12
3.04076e-12
3.03137e-12
3.02081e-12
3.0097e-12
2.99812e-12
2.98597e-12
2.97311e-12
2.95937e-12
2.94464e-12
2.92884e-12
2.91199e-12
2.89428e-12
2.87599e-12
2.85753e-12
2.83936e-12
2.82203e-12
2.80612e-12
2.79218e-12
2.78069e-12
2.77212e-12
2.96802e-12
3.45871e-12
3.25443e-12
2.9216e-12
2.85443e-12
2.90742e-12
2.9055e-12
2.8976e-12
2.88854e-12
2.87865e-12
2.86779e-12
2.85578e-12
2.84245e-12
2.82769e-12
2.81146e-12
2.79382e-12
2.77495e-12
2.75513e-12
2.73478e-12
2.7144e-12
2.69452e-12
2.67573e-12
2.65863e-12
2.64377e-12
2.6316e-12
2.62258e-12
2.80804e-12
3.27145e-12
3.07372e-12
2.76143e-12
2.69958e-12
2.75023e-12
2.74984e-12
2.74389e-12
2.73659e-12
2.72805e-12
2.71802e-12
2.70629e-12
2.69274e-12
2.67733e-12
2.66016e-12
2.64141e-12
2.62138e-12
2.60047e-12
2.5792e-12
2.55811e-12
2.53777e-12
2.51878e-12
2.5017e-12
2.48706e-12
2.47529e-12
2.46677e-12
2.6421e-12
3.07798e-12
2.87923e-12
2.58817e-12
2.53197e-12
2.58028e-12
2.58119e-12
2.57673e-12
2.57062e-12
2.56287e-12
2.55322e-12
2.54152e-12
2.52771e-12
2.51188e-12
2.49423e-12
2.47507e-12
2.45477e-12
2.43382e-12
2.41275e-12
2.39215e-12
2.37255e-12
2.35453e-12
2.3386e-12
2.32521e-12
2.31474e-12
2.30753e-12
2.47302e-12
2.88127e-12
2.68212e-12
2.41213e-12
2.36114e-12
2.40667e-12
2.40805e-12
2.40407e-12
2.39814e-12
2.39029e-12
2.38033e-12
2.36821e-12
2.35398e-12
2.33784e-12
2.32008e-12
2.30107e-12
2.28125e-12
2.26112e-12
2.2412e-12
2.22203e-12
2.20411e-12
2.18794e-12
2.17395e-12
2.16252e-12
2.15394e-12
2.14851e-12
2.30433e-12
2.68513e-12
2.49048e-12
2.2409e-12
2.19429e-12
2.23642e-12
2.23728e-12
2.23273e-12
2.226e-12
2.21723e-12
2.20637e-12
2.19347e-12
2.17872e-12
2.16239e-12
2.14483e-12
2.12644e-12
2.10766e-12
2.08896e-12
2.07082e-12
2.05369e-12
2.03801e-12
2.02417e-12
2.01251e-12
2.00334e-12
1.99686e-12
1.99329e-12
2.13954e-12
2.49336e-12
2.308e-12
2.07805e-12
2.03501e-12
2.0732e-12
2.07277e-12
2.06692e-12
2.0588e-12
2.04868e-12
2.03668e-12
2.02296e-12
2.0078e-12
1.99152e-12
1.9745e-12
1.95712e-12
1.93979e-12
1.92292e-12
1.9069e-12
1.8921e-12
1.87886e-12
1.86746e-12
1.85817e-12
1.85118e-12
1.84666e-12
1.84475e-12
1.98146e-12
2.30907e-12
2.13446e-12
1.9235e-12
1.88345e-12
1.91742e-12
1.91536e-12
1.90801e-12
1.89845e-12
1.88709e-12
1.87417e-12
1.85997e-12
1.84479e-12
1.82899e-12
1.81292e-12
1.79693e-12
1.78137e-12
1.76656e-12
1.7528e-12
1.74038e-12
1.72952e-12
1.72042e-12
1.71327e-12
1.70819e-12
1.70527e-12
1.70461e-12
1.83183e-12
2.13429e-12
1.96717e-12
1.77483e-12
1.73751e-12
1.76731e-12
1.76376e-12
1.75522e-12
1.74469e-12
1.73267e-12
1.71948e-12
1.70545e-12
1.69089e-12
1.67614e-12
1.66152e-12
1.64731e-12
1.63379e-12
1.62119e-12
1.60973e-12
1.59959e-12
1.59093e-12
1.58388e-12
1.57853e-12
1.57495e-12
1.57321e-12
1.57336e-12
1.6912e-12
1.96978e-12
1.80275e-12
1.62886e-12
1.59434e-12
1.62027e-12
1.61574e-12
1.60672e-12
1.59604e-12
1.58424e-12
1.57167e-12
1.55865e-12
1.54548e-12
1.53245e-12
1.5198e-12
1.50776e-12
1.49651e-12
1.48624e-12
1.47706e-12
1.46909e-12
1.46243e-12
1.45713e-12
1.45325e-12
1.45082e-12
1.44987e-12
1.45043e-12
1.55915e-12
1.81519e-12
1.63859e-12
1.48303e-12
1.45157e-12
1.47414e-12
1.46935e-12
1.4607e-12
1.45081e-12
1.4402e-12
1.42918e-12
1.41802e-12
1.40698e-12
1.39627e-12
1.38607e-12
1.37654e-12
1.36779e-12
1.35993e-12
1.35302e-12
1.34713e-12
1.34229e-12
1.33853e-12
1.33587e-12
1.33432e-12
1.33389e-12
1.3346e-12
1.43453e-12
1.66942e-12
1.47362e-12
1.33619e-12
1.30812e-12
1.3279e-12
1.32357e-12
1.31612e-12
1.30788e-12
1.29928e-12
1.29058e-12
1.28199e-12
1.27366e-12
1.26575e-12
1.25837e-12
1.25159e-12
1.24548e-12
1.24009e-12
1.23544e-12
1.23155e-12
1.22843e-12
1.22607e-12
1.22449e-12
1.22368e-12
1.22363e-12
1.22437e-12
1.31594e-12
1.531e-12
1.30851e-12
1.18879e-12
1.16441e-12
1.18194e-12
1.17865e-12
1.17302e-12
1.16703e-12
1.16102e-12
1.15515e-12
1.14954e-12
1.14428e-12
1.13943e-12
1.13504e-12
1.13114e-12
1.12772e-12
1.1248e-12
1.12237e-12
1.12043e-12
1.11896e-12
1.11794e-12
1.11738e-12
1.11727e-12
1.11759e-12
1.11839e-12
1.20207e-12
1.39846e-12
1.14538e-12
1.04267e-12
1.02213e-12
1.03783e-12
1.03597e-12
1.03248e-12
1.02905e-12
1.02587e-12
1.02302e-12
1.02053e-12
1.0184e-12
1.01663e-12
1.01522e-12
1.01413e-12
1.01333e-12
1.01281e-12
1.01252e-12
1.01245e-12
1.01258e-12
1.01287e-12
1.01333e-12
1.01394e-12
1.0147e-12
1.01565e-12
1.09193e-12
1.27069e-12
9.87232e-13
9.00505e-13
8.83774e-13
8.97966e-13
8.97645e-13
8.96369e-13
8.95474e-13
8.95063e-13
8.95111e-13
8.95572e-13
8.96388e-13
8.975e-13
8.98844e-13
9.0036e-13
9.01989e-13
9.03681e-13
9.0539e-13
9.07079e-13
9.08717e-13
9.10283e-13
9.11763e-13
9.13152e-13
9.14451e-13
9.15698e-13
9.85036e-13
1.14706e-12
8.37315e-13
7.65276e-13
7.52139e-13
7.65001e-13
7.66146e-13
7.6689e-13
7.68276e-13
7.70308e-13
7.72893e-13
7.75921e-13
7.79285e-13
7.8288e-13
7.86609e-13
7.90382e-13
7.94119e-13
7.97754e-13
8.01229e-13
8.04499e-13
8.07529e-13
8.10294e-13
8.12779e-13
8.14981e-13
8.16903e-13
8.18585e-13
8.81402e-13
1.02748e-12
6.98583e-13
6.39722e-13
6.29813e-13
6.41439e-13
6.43813e-13
6.46224e-13
6.49458e-13
6.53448e-13
6.58049e-13
6.63111e-13
6.6849e-13
6.74052e-13
6.79678e-13
6.8526e-13
6.90703e-13
6.9593e-13
7.00875e-13
7.05487e-13
7.09726e-13
7.13566e-13
7.1699e-13
7.19995e-13
7.22584e-13
7.24797e-13
7.81475e-13
9.12322e-13
5.73314e-13
5.25993e-13
5.18849e-13
5.29275e-13
5.32557e-13
5.36193e-13
5.40761e-13
5.46144e-13
5.5217e-13
5.58665e-13
5.65466e-13
5.72424e-13
5.79408e-13
5.86299e-13
5.92996e-13
5.99413e-13
6.05482e-13
6.11146e-13
6.16362e-13
6.21101e-13
6.25344e-13
6.29086e-13
6.3233e-13
6.35111e-13
6.85993e-13
8.02326e-13
4.62909e-13
4.25458e-13
4.20571e-13
4.29811e-13
4.33653e-13
4.38058e-13
4.43437e-13
4.49651e-13
4.56515e-13
4.63849e-13
4.71486e-13
4.79274e-13
4.87076e-13
4.94773e-13
5.02261e-13
5.09454e-13
5.16278e-13
5.22675e-13
5.286e-13
5.3402e-13
5.38915e-13
5.43276e-13
5.47103e-13
5.50428e-13
5.95831e-13
6.98397e-13
3.67869e-13
3.38665e-13
3.35535e-13
3.43604e-13
3.4768e-13
3.52435e-13
3.58154e-13
3.64692e-13
3.71869e-13
3.79511e-13
3.87456e-13
3.95558e-13
4.03685e-13
4.11722e-13
4.19567e-13
4.27134e-13
4.34351e-13
4.4116e-13
4.47512e-13
4.53373e-13
4.5872e-13
4.63541e-13
4.67833e-13
4.71621e-13
5.11853e-13
6.01462e-13
2.87888e-13
2.65422e-13
2.6359e-13
2.70523e-13
2.74561e-13
2.79318e-13
2.84989e-13
2.91437e-13
2.98497e-13
3.06008e-13
3.13824e-13
3.21811e-13
3.29846e-13
3.37822e-13
3.45645e-13
3.53231e-13
3.60511e-13
3.67429e-13
3.73935e-13
3.79995e-13
3.85582e-13
3.90682e-13
3.95288e-13
3.99417e-13
4.3479e-13
5.12329e-13
2.22025e-13
2.04948e-13
2.04022e-13
2.09877e-13
2.13671e-13
2.18168e-13
2.23504e-13
2.29554e-13
2.36174e-13
2.43227e-13
2.50584e-13
2.58125e-13
2.65744e-13
2.73342e-13
2.80835e-13
2.88146e-13
2.95211e-13
3.01974e-13
3.0839e-13
3.14423e-13
3.20045e-13
3.25238e-13
3.29993e-13
3.34321e-13
3.65155e-13
4.31589e-13
1.68911e-13
1.56059e-13
1.55722e-13
1.6058e-13
1.63991e-13
1.68054e-13
1.72862e-13
1.78309e-13
1.84278e-13
1.90652e-13
1.97323e-13
2.04191e-13
2.11163e-13
2.18155e-13
2.25091e-13
2.31904e-13
2.38535e-13
2.44933e-13
2.51056e-13
2.56867e-13
2.62339e-13
2.67453e-13
2.72196e-13
2.76573e-13
3.03209e-13
3.5956e-13
1.26943e-13
1.17343e-13
1.17353e-13
1.21309e-13
1.24262e-13
1.27792e-13
1.31964e-13
1.36696e-13
1.41894e-13
1.47465e-13
1.53321e-13
1.5938e-13
1.65564e-13
1.71804e-13
1.78034e-13
1.84197e-13
1.9024e-13
1.96118e-13
2.01792e-13
2.07227e-13
2.12398e-13
2.17284e-13
2.21871e-13
2.2616e-13
2.48952e-13
2.96276e-13
9.44437e-14
8.73039e-14
8.74847e-14
9.06491e-14
9.31171e-14
9.6075e-14
9.95743e-14
1.03553e-13
1.07939e-13
1.1266e-13
1.17649e-13
1.22841e-13
1.28172e-13
1.33587e-13
1.39032e-13
1.44457e-13
1.49818e-13
1.55076e-13
1.60195e-13
1.65145e-13
1.69901e-13
1.74442e-13
1.78755e-13
1.82835e-13
2.02148e-13
2.41504e-13
6.97747e-14
6.44659e-14
6.47e-14
6.71841e-14
6.91793e-14
7.15766e-14
7.44177e-14
7.76595e-14
8.12502e-14
8.51371e-14
8.9269e-14
9.3596e-14
9.80705e-14
1.02647e-13
1.07283e-13
1.11938e-13
1.16576e-13
1.21162e-13
1.25667e-13
1.30063e-13
1.34329e-13
1.38443e-13
1.42393e-13
1.46171e-13
1.62374e-13
1.94792e-13
5.14123e-14
4.74454e-14
4.76611e-14
4.95759e-14
5.11373e-14
5.30175e-14
5.52526e-14
5.78148e-14
6.0669e-14
6.37787e-14
6.71073e-14
7.06183e-14
7.42763e-14
7.80467e-14
8.18963e-14
8.57936e-14
8.97089e-14
9.36145e-14
9.74849e-14
1.01297e-13
1.05031e-13
1.0867e-13
1.12198e-13
1.1561e-13
1.29063e-13
1.5552e-13
3.79924e-14
3.4996e-14
3.51566e-14
3.66078e-14
3.77915e-14
3.92188e-14
4.09227e-14
4.28873e-14
4.50906e-14
4.75088e-14
5.01174e-14
5.28911e-14
5.58049e-14
5.88334e-14
6.19519e-14
6.51363e-14
6.83638e-14
7.16122e-14
7.48609e-14
7.80907e-14
8.12849e-14
8.44277e-14
8.75066e-14
9.0514e-14
1.01566e-13
1.22964e-13
2.83373e-14
2.60362e-14
2.61305e-14
2.72143e-14
2.8084e-14
2.91331e-14
3.03919e-14
3.18532e-14
3.35047e-14
3.53323e-14
3.73209e-14
3.94541e-14
4.17153e-14
4.4087e-14
4.65515e-14
4.90913e-14
5.16893e-14
5.43287e-14
5.69933e-14
5.96679e-14
6.23383e-14
6.49918e-14
6.76169e-14
7.02065e-14
7.91891e-14
9.63442e-14
2.14663e-14
1.96622e-14
1.96944e-14
2.04953e-14
2.11153e-14
2.18624e-14
2.2764e-14
2.38185e-14
2.50205e-14
2.6363e-14
2.78375e-14
2.94347e-14
3.11441e-14
3.29546e-14
3.48546e-14
3.68319e-14
3.88742e-14
4.09694e-14
4.31052e-14
4.52701e-14
4.74529e-14
4.96432e-14
5.18313e-14
5.40109e-14
6.1232e-14
7.48707e-14
1.65938e-14
1.5148e-14
1.51304e-14
1.5719e-14
1.61486e-14
1.66645e-14
1.72909e-14
1.80298e-14
1.888e-14
1.98389e-14
2.09028e-14
2.20673e-14
2.33266e-14
2.46744e-14
2.61034e-14
2.76061e-14
2.91743e-14
3.07993e-14
3.24728e-14
3.4186e-14
3.59306e-14
3.76986e-14
3.94822e-14
4.12761e-14
4.70178e-14
5.77754e-14
1.31164e-14
1.19341e-14
1.18815e-14
1.23141e-14
1.26041e-14
1.29498e-14
1.33728e-14
1.38763e-14
1.44614e-14
1.51283e-14
1.58764e-14
1.67041e-14
1.76092e-14
1.85884e-14
1.9638e-14
2.07535e-14
2.19301e-14
2.31623e-14
2.44444e-14
2.57704e-14
2.71344e-14
2.85305e-14
2.99528e-14
3.13971e-14
3.5914e-14
4.43372e-14
1.05901e-14
9.60804e-15
9.53407e-15
9.85362e-15
1.00447e-14
1.02699e-14
1.05478e-14
1.08822e-14
1.12749e-14
1.17277e-14
1.22415e-14
1.28165e-14
1.34524e-14
1.41481e-14
1.49023e-14
1.57126e-14
1.65766e-14
1.7491e-14
1.84525e-14
1.94572e-14
2.05012e-14
2.15803e-14
2.26906e-14
2.38288e-14
2.73463e-14
3.38989e-14
8.70162e-15
7.87782e-15
7.79355e-15
8.03187e-15
8.15491e-15
8.29769e-15
8.4757e-15
8.69265e-15
8.95075e-15
9.25201e-15
9.59793e-15
9.98973e-15
1.0428e-14
1.09132e-14
1.14448e-14
1.20224e-14
1.26447e-14
1.33105e-14
1.40176e-14
1.47641e-14
1.55475e-14
1.63652e-14
1.72146e-14
1.80936e-14
2.0808e-14
2.58776e-14
7.23872e-15
6.54492e-15
6.45865e-15
6.6385e-15
6.71614e-15
6.80427e-15
6.9159e-15
7.05409e-15
7.221e-15
7.41848e-15
7.64811e-15
7.91138e-15
8.20933e-15
8.54283e-15
8.91224e-15
9.31779e-15
9.75927e-15
1.02363e-14
1.07479e-14
1.12933e-14
1.1871e-14
1.24798e-14
1.31178e-14
1.37841e-14
1.58631e-14
1.97693e-14
6.06307e-15
5.47941e-15
5.39681e-15
5.53435e-15
5.58268e-15
5.6359e-15
5.70486e-15
5.79201e-15
5.89912e-15
6.02775e-15
6.17929e-15
6.35507e-15
6.55627e-15
6.78377e-15
7.03833e-15
7.32043e-15
7.63037e-15
7.96823e-15
8.33395e-15
8.72712e-15
9.1473e-15
9.59382e-15
1.00658e-14
1.05628e-14
1.21467e-14
1.51493e-14
5.08769e-15
4.59919e-15
4.52389e-15
4.63053e-15
4.66055e-15
4.69245e-15
4.73506e-15
4.7903e-15
4.8595e-15
4.94381e-15
5.04443e-15
5.16233e-15
5.29859e-15
5.45392e-15
5.6292e-15
5.82493e-15
6.0417e-15
6.2797e-15
6.53926e-15
6.82036e-15
7.123e-15
7.44696e-15
7.79198e-15
8.158e-15
9.36162e-15
1.16684e-14
4.25984e-15
3.85411e-15
3.78815e-15
3.87189e-15
3.89101e-15
3.91057e-15
3.93766e-15
3.97377e-15
4.01975e-15
4.07647e-15
4.14474e-15
4.22533e-15
4.31897e-15
4.42635e-15
4.5481e-15
4.68475e-15
4.83686e-15
5.00477e-15
5.18882e-15
5.38926e-15
5.60627e-15
5.8399e-15
6.09024e-15
6.35744e-15
7.27221e-15
9.04708e-15
3.54822e-15
3.21444e-15
3.15859e-15
3.22511e-15
3.2381e-15
3.25098e-15
3.2695e-15
3.29462e-15
3.32689e-15
3.36691e-15
3.41517e-15
3.47221e-15
3.53849e-15
3.61455e-15
3.70083e-15
3.79779e-15
3.90583e-15
4.02537e-15