/*--------------------------------*- C++ -*----------------------------------*\
  =========                 |
  \\      /  F ield         | OpenFOAM: The Open Source CFD Toolbox
   \\    /   O peration     | Website:  https://openfoam.org
    \\  /    A nd           | Version:  7
     \\/     M anipulation  |
\*---------------------------------------------------------------------------*/
FoamFile
{
    version     2.0;
    format      ascii;
    class       volScalarField;
    location    "0.01";
    object      p_rgh;
}
// * * * * * * * * * * * * * * * * * * * * * * * * * * * * * * * * * * * * * //

dimensions      [1 -1 -2 0 0 0 0];

internalField   nonuniform List<scalar> 
10790
(
12062.1
12028.9
12074.5
12075.1
12065.2
12059.9
12059.3
12061.6
12062.9
12063.3
12063
12062.8
12062.5
12062.6
12062.8
12063
12062.6
12061.2
12059.4
12058
12057.6
12057.1
12056.5
12059.8
12068.9
12077.7
12079.6
12018.3
12025.3
12052.4
12054.6
12049.4
12051
12051.8
12051.3
12051
12051
12050.8
12050.6
12050.8
12051.1
12051.1
12050.4
12049.4
12048.5
12047.8
12047.1
12044.8
12039.1
12030.9
12028.2
12052.6
12073.4
12046
12027.8
12033.8
12035
12038.5
12041.1
12041
12040.3
12040
12039.7
12039.3
12039.4
12039.8
12040.2
12039.8
12038.3
12036.7
12036.2
12036.5
12037.2
12039.6
12041
12033.7
12019
12027.9
12021.1
12017.8
12019.5
12014.2
12007.1
12012.2
12014.5
12014.4
12014.1
12013.6
12013.1
12012.7
12012.9
12013.6
12014.1
12013.7
12012.2
12010.7
12010
12009.2
12007.7
12009.5
12015.3
12018.8
12007.8
12009.8
11999.6
11999.8
12000.6
11997.5
11998.2
11999.9
12000.2
12000.4
12000.3
11999.6
11998.9
11998.7
11999.2
11999.7
11999.7
11998.8
11997.5
11996.8
11996.9
11996.8
11995
11992.6
11991.4
11996.6
11993.3
11993.1
11976.6
11985.3
11977.9
11974.8
11980.4
11980.1
11979.7
11980
11979.7
11978.8
11978.2
11978.5
11979.3
11979.9
11979.5
11978
11976.5
11975.5
11974.5
11974.2
11974.5
11974.2
11974
11977.3
11976.6
11975.5
11955.5
11952.8
11951.8
11956.3
11957.1
11956.1
11956.4
11956.4
11955.6
11954.7
11954.4
11954.8
11955.6
11956.3
11956.1
11955.3
11955.4
11956.6
11957.2
11958.1
11959.3
11957.6
11957.2
11957.6
11957.5
11957.2
11953.1
11943.2
11945.2
11951.5
11949
11948.6
11949
11948.6
11947.8
11947.5
11947.6
11947.8
11947.8
11947.3
11945.9
11943.8
11942.3
11941.4
11939.8
11939
11941.4
11939.1
11938.7
11938.4
11939
11939.7
11923.3
11923.1
11927.6
11925.7
11924.2
11924.7
11924.4
11923.6
11923.3
11923.7
11924.3
11924.8
11925.2
11925.1
11924.4
11923.4
11922.8
11922.7
11922
11919.2
11920.9
11919.8
11920.8
11921.3
11922.1
11922.8
11900.6
11905.1
11907.9
11902.5
11903
11903.2
11902.4
11902
11902.3
11902.5
11902.3
11902.3
11902.6
11903
11903.1
11903.5
11903.5
11902.7
11903.2
11902.1
11903.5
11903.1
11904.5
11905.1
11905.1
11905.1
11893.7
11897.1
11892
11890.7
11891.4
11890.8
11890.6
11891.6
11892.5
11892.1
11890.6
11889.1
11888
11887.2
11886.5
11886.9
11888.2
11887.8
11887.1
11886.9
11887.6
11886.7
11887.1
11887
11886.6
11886.2
11878.2
11877.8
11871.7
11873.5
11872.9
11872.3
11873.3
11875.1
11876.1
11875.8
11874.6
11873.6
11873.2
11872.8
11871.9
11871.1
11871.6
11871.9
11869.7
11869
11869
11867.8
11867.5
11867.3
11866.9
11866.6
11856.5
11850.8
11851.5
11852.1
11850.9
11851.4
11852.8
11853.8
11853.5
11852.5
11851.6
11851.6
11852.5
11853.1
11852.7
11851.3
11850.2
11850.9
11848.7
11847.9
11848.1
11847.5
11847.4
11847.4
11847.2
11847.1
11831.1
11826.6
11830.4
11829.2
11829.3
11831.2
11832.3
11832.1
11830.4
11828.1
11826.6
11826.9
11828.2
11829.3
11829.6
11828.7
11827.4
11828.5
11827.4
11827.1
11827.7
11827.6
11827.7
11827.7
11827.7
11827.7
11805
11807.8
11808.3
11807.4
11809
11810.5
11811
11810.5
11809
11807
11805.4
11805.2
11806.3
11807.7
11808.4
11807.8
11807
11808.4
11808.2
11808.3
11808.7
11808.8
11808.7
11808.6
11808.6
11808.6
11789.5
11794.7
11792.8
11793.3
11794.1
11793.5
11792.8
11792.6
11792.6
11792.3
11791.6
11790.9
11790.8
11791.6
11792.2
11791.4
11790.2
11790.9
11790.8
11790.5
11790.6
11790.5
11790.2
11790
11789.8
11789.6
11781
11782
11781.5
11782.5
11781.1
11778.6
11777
11776.9
11777.9
11779.1
11779.5
11778.7
11777.4
11776.7
11776.8
11775.6
11774
11774
11773.6
11772.8
11772.6
11772.2
11771.6
11771.1
11770.6
11770.1
11764.5
11762.9
11764.2
11763.7
11761
11758.6
11757.5
11757.7
11758.8
11760.2
11761.3
11761.1
11759.5
11758.1
11757.9
11757
11755.6
11755.3
11754.9
11754.2
11753.5
11752.8
11751.9
11751.1
11750.3
11749.7
11738.2
11737.7
11738
11735.7
11733.7
11733.1
11733.6
11734.2
11734.8
11735.7
11737
11737.6
11736.8
11735.6
11735.7
11735.5
11734.8
11734.4
11734.1
11733.4
11732.6
11731.6
11730.6
11729.7
11728.9
11728.3
11710.7
11711.1
11709.1
11706.7
11706.6
11707.9
11709.4
11710
11709.9
11709.9
11710.7
11711.9
11712
11711.5
11711.9
11712.2
11712
11711.7
11711.4
11710.8
11710
11709.1
11708.1
11707.3
11706.7
11706.4
11686.4
11685.3
11683.3
11683
11684.6
11686.5
11687.8
11687.8
11686.9
11686
11686.1
11687.2
11687.8
11687.7
11688
11688.3
11688.3
11688.1
11687.7
11687.2
11686.6
11685.9
11685.3
11684.8
11684.5
11684.5
11662.6
11660.5
11661.1
11663.3
11665.5
11666.5
11666.3
11665.7
11664.8
11663.9
11663.6
11664.3
11665
11664.8
11664.8
11664.9
11664.8
11664.6
11664.3
11663.9
11663.5
11663.2
11662.8
11662.6
11662.6
11662.6
11637.4
11637.3
11640.5
11643.6
11645.3
11645
11643.8
11643.2
11643
11642.7
11642.4
11642.8
11643.1
11642.9
11642.7
11642.5
11642.3
11642.1
11641.9
11641.6
11641.4
11641.1
11640.9
11640.7
11640.6
11640.5
11613.5
11616.7
11619.7
11621.8
11622.6
11621.9
11620.9
11620.8
11621.4
11621.9
11622
11622.1
11622
11621.9
11621.5
11621.1
11620.8
11620.5
11620.3
11620
11619.6
11619.3
11618.9
11618.5
11618.1
11617.7
11593.4
11597.5
11598
11598.4
11598.4
11597.9
11597.7
11598.4
11599.7
11600.8
11601.2
11601.2
11601
11600.5
11600
11599.5
11599
11598.6
11598.2
11597.7
11597.1
11596.5
11595.9
11595.2
11594.5
11593.9
11573.9
11575.5
11573.7
11573
11572.8
11573
11573.7
11575
11576.6
11577.7
11578
11577.8
11577.4
11576.8
11576.2
11575.7
11575.2
11574.7
11574.1
11573.5
11572.7
11571.9
11571.1
11570.2
11569.4
11568.7
11548.6
11546.7
11544.7
11544.1
11544.5
11545.5
11546.9
11548.3
11549.7
11550.5
11550.6
11550.3
11549.9
11549.5
11549.1
11548.8
11548.5
11548.2
11547.7
11547
11546.3
11545.5
11544.7
11543.9
11543.2
11542.6
11516.1
11512.8
11512.4
11512.8
11513.8
11515.3
11516.8
11518
11518.8
11519.3
11519.3
11519.2
11519.1
11519.2
11519.4
11519.6
11519.7
11519.7
11519.5
11519.1
11518.6
11518
11517.4
11516.8
11516.4
11516
11481
11479.1
11480.5
11481.6
11482.7
11483.9
11485.1
11485.8
11486.2
11486.4
11486.6
11486.8
11487.3
11488
11488.9
11489.6
11490.3
11490.7
11490.9
11490.8
11490.6
11490.3
11490
11489.7
11489.4
11489.3
11449
11449.6
11451.1
11451.9
11452.5
11453
11453.5
11453.7
11453.9
11454.2
11454.7
11455.5
11456.6
11457.9
11459.3
11460.5
11461.5
11462.1
11462.6
11462.8
11462.8
11462.7
11462.6
11462.5
11462.5
11462.5
11422.6
11424.1
11424.8
11424.4
11424.1
11423.8
11423.7
11423.7
11423.8
11424.3
11425.2
11426.4
11427.9
11429.6
11431.1
11432.4
11433.5
11434.3
11434.8
11435.1
11435.3
11435.4
11435.5
11435.6
11435.9
11436.2
11399.7
11400.5
11399.6
11398.4
11397.5
11396.9
11396.5
11396.4
11396.7
11397.3
11398.4
11399.8
11401.3
11402.9
11404.4
11405.6
11406.6
11407.3
11407.9
11408.3
11408.7
11409
11409.4
11409.8
11410.3
11410.9
11376.6
11375.5
11373.7
11372.3
11371.4
11371
11370.8
11370.9
11371.4
11372.3
11373.4
11374.8
11376.2
11377.6
11378.9
11379.9
11380.8
11381.5
11382.1
11382.7
11383.3
11384
11384.7
11385.5
11386.3
11387.2
11351.5
11348.8
11347.1
11346.3
11346
11346.1
11346.3
11346.9
11347.7
11348.7
11349.9
11351.1
11352.4
11353.6
11354.6
11355.6
11356.4
11357.3
11358.1
11359
11359.9
11361
11362.1
11363.3
11364.5
11365.7
11325.9
11322.7
11321.9
11322.1
11322.6
11323.2
11323.8
11324.5
11325.5
11326.6
11327.8
11329
11330.2
11331.3
11332.3
11333.3
11334.3
11335.4
11336.5
11337.8
11339.2
11340.6
11342.1
11343.7
11345.2
11346.6
11303.7
11301.5
11301.8
11302.7
11303.6
11304.3
11305
11305.8
11306.7
11307.7
11308.9
11310
11311
11312.1
11313.1
11314.2
11315.4
11316.8
11318.2
11319.8
11321.6
11323.4
11325.1
11326.9
11328.6
11330.1
11288.3
11287.8
11288.8
11289.8
11290.4
11290.9
11291.4
11292
11292.6
11293.5
11294.3
11295.2
11296.1
11297
11298.1
11299.3
11300.6
11302.1
11303.8
11305.6
11307.5
11309.5
11311.4
11313.2
11314.8
11316.3
11279.8
11280.6
11281.6
11282
11282.1
11282.1
11282.2
11282.4
11282.8
11283.3
11283.9
11284.5
11285.2
11286
11287
11288.2
11289.6
11291.2
11293
11294.8
11296.7
11298.6
11300.5
11302.2
11303.7
11305
11276.1
11277.3
11277.5
11277.3
11276.7
11276.3
11276.1
11276
11276.1
11276.3
11276.6
11277
11277.6
11278.3
11279.2
11280.3
11281.6
11283.2
11284.8
11286.6
11288.4
11290.1
11291.8
11293.3
11294.6
11295.7
11273.7
11274.2
11273.7
11272.9
11272
11271.4
11271.1
11271
11271
11271
11271.2
11271.5
11271.9
11272.5
11273.4
11274.4
11275.7
11277.1
11278.6
11280.2
11281.7
11283.3
11284.7
11285.9
11287.1
11287.9
11269.9
11269.5
11268.4
11267.4
11266.8
11266.4
11266.2
11266.2
11266.3
11266.4
11266.6
11266.9
11267.3
11267.9
11268.7
11269.7
11270.9
11272.2
11273.5
11274.9
11276.3
11277.6
11278.8
11279.9
11280.9
11281.6
11264.3
11263
11261.9
11261.3
11261.1
11261.2
11261.4
11261.6
11261.9
11262.2
11262.5
11262.9
11263.4
11264.1
11264.9
11265.9
11267
11268.2
11269.4
11270.7
11271.9
11273.1
11274.1
11275.1
11275.9
11276.6
11258
11256.4
11255.9
11255.9
11256.3
11256.8
11257.3
11257.8
11258.3
11258.7
11259.2
11259.8
11260.4
11261.2
11262.1
11263.1
11264.1
11265.3
11266.4
11267.5
11268.6
11269.6
11270.6
11271.4
11272.2
11272.8
11253
11251.9
11252.1
11252.6
11253.4
11254.2
11254.9
11255.5
11256.1
11256.7
11257.3
11258
11258.7
11259.5
11260.4
11261.4
11262.4
11263.4
11264.4
11265.4
11266.4
11267.3
11268.1
11268.8
11269.5
11270.1
11250.9
11250.7
11251.4
11252.3
11253.2
11254
11254.7
11255.3
11255.9
11256.5
11257.1
11257.8
11258.5
11259.3
11260.1
11261
11261.8
11262.7
11263.6
11264.4
11265.2
11265.9
11266.5
11267.1
11267.6
11268.1
11251.9
11252.6
11253.6
11254.5
11255.3
11255.9
11256.4
11256.9
11257.3
11257.7
11258.2
11258.8
11259.4
11260
11260.7
11261.4
11262.1
11262.8
11263.5
11264.1
11264.6
11265.1
11265.5
11265.9
11266.2
11266.5
11254.9
11256.3
11257.2
11257.9
11258.3
11258.6
11258.9
11259.1
11259.3
11259.6
11259.9
11260.3
11260.7
11261.2
11261.6
11262.1
11262.6
11263.1
11263.5
11263.8
11264.1
11264.4
11264.6
11264.7
11264.8
11264.8
11257.9
11259.5
11260.1
11260.4
11260.6
11260.6
11260.6
11260.6
11260.6
11260.7
11260.9
11261.1
11261.3
11261.6
11261.9
11262.2
11262.5
11262.7
11262.9
11263
11263.1
11263.1
11263.1
11263
11262.9
11262.7
11259.1
11260.3
11260.6
11260.6
11260.5
11260.4
11260.2
11260.1
11260
11260.1
11260.1
11260.3
11260.4
11260.6
11260.8
11261
11261.1
11261.2
11261.2
11261.1
11261
11260.9
11260.7
11260.4
11260.1
11259.7
11257
11257.7
11257.7
11257.5
11257.3
11257.1
11256.9
11256.9
11256.9
11256.9
11257.1
11257.2
11257.4
11257.6
11257.7
11257.8
11257.9
11257.9
11257.8
11257.7
11257.5
11257.2
11256.9
11256.5
11256.1
11255.6
11251.3
11251.5
11251.3
11251.1
11250.9
11250.8
11250.8
11250.9
11251
11251.3
11251.5
11251.8
11252.1
11252.4
11252.6
11252.7
11252.8
11252.8
11252.8
11252.6
11252.4
11252.1
11251.8
11251.4
11250.9
11250.4
11242.6
11242.4
11242.1
11242
11241.9
11242
11242.3
11242.6
11243
11243.5
11244
11244.5
11244.9
11245.3
11245.7
11245.9
11246.1
11246.2
11246.2
11246.1
11245.9
11245.7
11245.4
11245
11244.5
11244
11232
11231.6
11231.4
11231.4
11231.5
11231.9
11232.4
11233
11233.7
11234.4
11235.1
11235.8
11236.4
11237
11237.5
11237.8
11238.1
11238.3
11238.4
11238.4
11238.3
11238.1
11237.9
11237.6
11237.2
11236.7
11220.7
11220.2
11220.2
11220.4
11220.9
11221.5
11222.2
11223.1
11223.9
11224.8
11225.7
11226.5
11227.3
11228
11228.5
11229
11229.3
11229.6
11229.8
11229.8
11229.8
11229.7
11229.5
11229.3
11228.9
11228.5
11209.7
11209.5
11209.7
11210.2
11210.8
11211.6
11212.5
11213.5
11214.5
11215.5
11216.4
11217.3
11218.1
11218.7
11219.3
11219.8
11220.2
11220.4
11220.6
11220.7
11220.7
11220.6
11220.4
11220.2
11219.9
11219.5
11199.7
11199.8
11200.3
11200.9
11201.8
11202.7
11203.6
11204.6
11205.6
11206.6
11207.4
11208.2
11208.9
11209.5
11210
11210.4
11210.7
11210.9
11211
11211
11211
11210.9
11210.7
11210.4
11210
11209.6
11190.6
11191.2
11191.9
11192.7
11193.6
11194.5
11195.4
11196.3
11197.2
11198
11198.7
11199.3
11199.8
11200.2
11200.5
11200.7
11200.9
11200.9
11200.9
11200.8
11200.6
11200.3
11200
11199.6
11199.1
11198.6
11182
11183
11183.9
11184.8
11185.6
11186.5
11187.2
11188
11188.6
11189.1
11189.6
11189.9
11190.1
11190.3
11190.3
11190.3
11190.2
11190
11189.8
11189.4
11189.1
11188.6
11188.1
11187.5
11186.9
11186.2
11172.9
11174.3
11175.3
11176.1
11176.9
11177.6
11178.2
11178.6
11178.9
11179.2
11179.3
11179.3
11179.2
11179.1
11178.8
11178.5
11178.1
11177.7
11177.2
11176.6
11176
11175.3
11174.5
11173.7
11172.8
11171.9
11162.3
11163.9
11164.9
11165.7
11166.3
11166.7
11167
11167.2
11167.2
11167.2
11167
11166.7
11166.3
11165.8
11165.2
11164.6
11164
11163.2
11162.4
11161.6
11160.7
11159.7
11158.7
11157.7
11156.6
11155.4
11148.8
11150.6
11151.5
11152.1
11152.5
11152.8
11152.8
11152.7
11152.5
11152.1
11151.6
11151
11150.4
11149.6
11148.8
11147.9
11146.9
11145.9
11144.9
11143.8
11142.6
11141.4
11140.2
11138.9
11137.6
11136.2
11131.6
11133.4
11134.1
11134.6
11134.8
11134.8
11134.6
11134.3
11133.8
11133.2
11132.5
11131.7
11130.8
11129.8
11128.8
11127.7
11126.5
11125.3
11124
11122.7
11121.4
11120
11118.5
11117.1
11115.5
11114
11109.9
11111.5
11112.1
11112.3
11112.4
11112.2
11111.9
11111.4
11110.7
11110
11109.1
11108.1
11107.1
11106
11104.8
11103.5
11102.2
11100.9
11099.5
11098
11096.5
11095
11093.4
11091.8
11090.2
11088.5
11083.3
11084.7
11085.1
11085.2
11085
11084.7
11084.3
11083.7
11083
11082.1
11081.2
11080.2
11079
11077.9
11076.6
11075.3
11073.9
11072.5
11071
11069.5
11067.9
11066.3
11064.7
11063
11061.3
11059.6
11051.8
11053
11053.2
11053.1
11052.9
11052.5
11052
11051.4
11050.6
11049.8
11048.8
11047.8
11046.7
11045.5
11044.2
11042.9
11041.6
11040.1
11038.7
11037.2
11035.6
11034.1
11032.4
11030.8
11029.1
11027.4
11015.9
11016.7
11016.8
11016.6
11016.4
11015.9
11015.4
11014.8
11014.1
11013.2
11012.3
11011.3
11010.3
11009.2
11008
11006.7
11005.4
11004.1
11002.7
11001.3
10999.8
10998.4
10996.8
10995.3
10993.7
10992.1
10976
10976.5
10976.5
10976.3
10976
10975.5
10975
10974.5
10973.8
10973
10972.2
10971.3
10970.3
10969.3
10968.2
10967.1
10965.9
10964.7
10963.5
10962.2
10960.9
10959.6
10958.2
10956.8
10955.4
10953.9
10932.8
10933.1
10933
10932.8
10932.4
10932
10931.6
10931
10930.4
10929.8
10929
10928.3
10927.4
10926.5
10925.6
10924.6
10923.6
10922.6
10921.5
10920.5
10919.3
10918.2
10917
10915.8
10914.6
10913.3
10887.2
10887.3
10887.1
10886.9
10886.5
10886.2
10885.8
10885.3
10884.8
10884.2
10883.6
10882.9
10882.2
10881.5
10880.7
10879.9
10879.1
10878.3
10877.4
10876.5
10875.6
10874.7
10873.7
10872.8
10871.8
10870.8
10839.9
10839.8
10839.6
10839.3
10839
10838.7
10838.3
10837.9
10837.4
10837
10836.5
10835.9
10835.4
10834.8
10834.2
10833.6
10833
10832.4
10831.7
10831
10830.4
10829.7
10828.9
10828.2
10827.5
10826.7
10791.6
10791.4
10791.1
10790.8
10790.5
10790.2
10789.9
10789.5
10789.1
10788.8
10788.4
10788
10787.6
10787.1
10786.7
10786.3
10785.9
10785.4
10785
10784.5
10784.1
10783.6
10783.1
10782.6
10782.1
10781.6
10742.9
10742.6
10742.3
10742
10741.7
10741.4
10741.1
10740.8
10740.5
10740.2
10739.9
10739.6
10739.4
10739.1
10738.8
10738.6
10738.3
10738.1
10737.8
10737.6
10737.3
10737.1
10736.8
10736.6
10736.3
10736
10694.4
10693.9
10693.6
10693.3
10693
10692.7
10692.5
10692.3
10692
10691.8
10691.7
10691.5
10691.3
10691.2
10691.1
10691
10690.9
10690.8
10690.7
10690.6
10690.6
10690.5
10690.5
10690.4
10690.4
10690.3
10646.4
10645.9
10645.5
10645.2
10645
10644.8
10644.6
10644.4
10644.2
10644.1
10644
10643.9
10643.9
10643.9
10643.9
10643.9
10643.9
10644
10644
10644.1
10644.2
10644.3
10644.5
10644.6
10644.7
10644.9
10599.4
10598.8
10598.5
10598.2
10598
10597.8
10597.6
10597.5
10597.4
10597.4
10597.3
10597.3
10597.4
10597.5
10597.6
10597.7
10597.8
10598
10598.2
10598.4
10598.6
10598.9
10599.1
10599.4
10599.7
10600
10553.7
10553.1
10552.8
10552.5
10552.3
10552.2
10552
10552
10551.9
10551.9
10552
10552
10552.1
10552.3
10552.4
10552.6
10552.9
10553.1
10553.4
10553.7
10554
10554.4
10554.8
10555.2
10555.6
10556
10509.4
10508.8
10508.5
10508.3
10508.2
10508
10508
10507.9
10507.9
10508
10508
10508.2
10508.3
10508.5
10508.7
10509
10509.2
10509.6
10509.9
10510.3
10510.7
10511.1
10511.5
10512
10512.5
10513.1
10466.8
10466.2
10465.9
10465.8
10465.6
10465.6
10465.5
10465.5
10465.5
10465.6
10465.7
10465.9
10466
10466.2
10466.5
10466.8
10467.1
10467.4
10467.8
10468.2
10468.6
10469.1
10469.6
10470.2
10470.7
10471.3
10425.8
10425.3
10425.1
10424.9
10424.8
10424.8
10424.8
10424.8
10424.8
10424.9
10425
10425.2
10425.3
10425.6
10425.8
10426.1
10426.4
10426.7
10427.1
10427.5
10428
10428.5
10429
10429.6
10430.2
10430.8
10386.4
10385.9
10385.8
10385.7
10385.6
10385.6
10385.6
10385.6
10385.6
10385.7
10385.8
10386
10386.2
10386.4
10386.6
10386.9
10387.2
10387.5
10387.9
10388.3
10388.7
10389.2
10389.7
10390.3
10390.9
10391.6
10348.5
10348.2
10348.1
10348
10347.9
10347.9
10347.9
10347.9
10348
10348
10348.1
10348.3
10348.4
10348.6
10348.8
10349
10349.3
10349.6
10350
10350.4
10350.8
10351.3
10351.8
10352.3
10352.9
10353.5
10312.1
10311.8
10311.7
10311.6
10311.6
10311.6
10311.6
10311.6
10311.6
10311.7
10311.8
10311.9
10312
10312.1
10312.3
10312.5
10312.7
10313
10313.3
10313.7
10314.1
10314.5
10315
10315.5
10316
10316.6
10276.8
10276.6
10276.5
10276.5
10276.5
10276.4
10276.4
10276.4
10276.5
10276.5
10276.6
10276.6
10276.7
10276.8
10277
10277.1
10277.3
10277.6
10277.8
10278.1
10278.5
10278.8
10279.3
10279.7
10280.2
10280.8
10242.5
10242.4
10242.3
10242.3
10242.3
10242.3
10242.3
10242.3
10242.3
10242.3
10242.3
10242.4
10242.4
10242.5
10242.6
10242.7
10242.9
10243.1
10243.3
10243.6
10243.8
10244.2
10244.5
10244.9
10245.4
10245.9
10209.1
10209
10208.9
10208.9
10208.9
10208.9
10208.9
10208.9
10208.9
10208.9
10208.9
10208.9
10208.9
10209
10209.1
10209.2
10209.3
10209.4
10209.6
10209.8
10210
10210.3
10210.6
10211
10211.3
10211.7
10176.3
10176.2
10176.2
10176.2
10176.2
10176.1
10176.1
10176.1
10176.1
10176.1
10176.1
10176.1
10176.1
10176.1
10176.2
10176.3
10176.3
10176.5
10176.6
10176.7
10176.9
10177.1
10177.4
10177.7
10178
10178.3
10143.9
10143.9
10143.9
10143.9
10143.9
10143.9
10143.8
10143.8
10143.8
10143.8
10143.8
10143.8
10143.8
10143.8
10143.8
10143.9
10143.9
10144
10144.1
10144.2
10144.4
10144.5
10144.7
10144.9
10145.2
10145.4
10111.9
10111.9
10111.9
10111.9
10111.9
10111.9
10111.9
10111.9
10111.9
10111.8
10111.8
10111.8
10111.8
10111.8
10111.8
10111.9
10111.9
10112
10112
10112.1
10112.2
10112.3
10112.4
10112.6
10112.7
10112.9
10080.2
10080.2
10080.2
10080.2
10080.2
10080.2
10080.2
10080.2
10080.2
10080.2
10080.2
10080.2
10080.2
10080.2
10080.2
10080.2
10080.2
10080.2
10080.3
10080.3
10080.4
10080.4
10080.5
10080.5
10080.6
10080.7
10048.1
10048.1
10048.1
10048.1
10048.1
10048.1
10048.1
10048.1
10048.1
10048.1
10048.1
10048.1
10048.1
10048.1
10048.1
10048.1
10048.1
10048.1
10048.1
10048.1
10048.1
10048.1
10048.1
10048.1
10048.1
10048.1
10000.1
10000.1
10000.1
10000.1
10000.1
10000.1
10000.1
10000.1
10000.1
10000.1
10000.1
10000.1
10000.1
10000.1
10000.1
10000.1
10000.1
10000.1
10000.1
10000.1
10000.1
10000.1
10000.1
10000.1
10000.1
10000.1
10000.1
10000.1
10000.1
10000.1
10000.1
10000.1
10000.1
10000.1
10000.1
10000.1
10000.1
10000.1
10000.1
10000.1
10000.1
10000.1
10000.1
10000.1
10000.1
10000.1
10000.1
10000.1
10000.1
10000.1
10000.1
10000.1
10000.1
10000.1
10000.1
10000.1
10000.1
10000.1
10000.1
10000.1
10000.1
10000.1
10000.1
10000.1
10000.1
10000.1
10000.1
10000.1
10000.1
10000.1
10000.1
10000.1
10000.1
10000.1
10000.1
10000.1
10000.1
10000.1
10000.1
10000.1
10000.1
10000.1
10000.1
10000.1
10000.1
10000.1
10000.1
10000.1
10000.1
10000.1
10000.1
10000.1
10000.1
10000.1
10000.1
10000.1
10000.1
10000.1
10000.1
10000.1
10000.1
10000.1
10000.1
10000.1
10000.1
10000.1
10000.1
10000.1
10000.1
10000.1
10000.1
10000.1
10000.1
10000.1
10000.1
10000.1
10000.1
10000.1
10000.1
10000.1
10000.1
10000.1
10000.1
10000.1
10000.1
10000.1
10000.1
10000.1
10000.1
10000.1
10000.1
10000.1
10000.1
10000.1
10000.1
10000.1
10000.1
10000.1
10000.1
10000.1
10000.1
10000.1
10000.1
10000.1
10000.1
10000.1
10000.1
10000.1
10000.1
10000.1
10000.1
10000.1
10000.1
10000.1
10000.1
10000.1
10000.1
10000.1
10000.1
10000.1
10000.1
10000.1
10000.1
10000.1
10000.1
10000.1
10000.1
10000.1
10000.1
10000.1
10000.1
10000.1
10000.1
10000.1
10000.1
10000.1
10000.1
10000.1
10000.1
10000.1
10000.1
10000.1
10000.1
10000.1
10000.1
10000.1
10000.1
10000.1
10000.1
10000.1
10000.1
10000.1
10000.1
10000.1
10000.1
10000.1
10000.1
10000.1
10000.1
10000.1
10000.1
10000.1
10000.1
10000.1
10000.1
10000.1
10000.1
10000.1
10000.1
10000.1
10000.1
10000.1
10000.1
10000.1
10000.1
10000.1
10000.1
10000.1
10000.1
10000.1
10000.1
10000.1
10000.1
10000.1
10000.1
10000.1
10000.1
10000.1
10000.1
10000.1
10000.1
10000.1
10000.1
10000.1
10000.1
10000.1
10000.1
10000.1
10000.1
10000.1
10000.1
10000.1
10000.1
10000.1
10000.1
10000.1
10000.1
10000.1
10000.1
10000.1
10000.1
10000.1
10000.1
10000.1
10000.1
10000.1
10000.1
10000.1
10000.1
10000.1
10000.1
10000.1
10000.1
10000.1
10000.1
10000.1
10000.1
10000.1
10000.1
10000.1
10000.1
10000.1
10000.1
10000.1
10000.1
10000.1
10000.1
10000.1
10000.1
10000.1
10000.1
10000.1
10000.1
10000.1
10000.1
10000.1
10000.1
10000.1
10000.1
10000.1
10000.1
10000.1
10000.1
10000.1
10000.1
10000.1
10000.1
10000.1
10000.1
10000.1
10000.1
10000.1
10000.1
10000.1
10000.1
10000.1
10000.1
10000.1
10000.1
10000.1
10000.1
10000.1
10000.1
10000.1
10000.1
10000.1
10000.1
10000.1
10000.1
10000.1
10000.1
10000.1
10000.1
10000.1
10000.1
10000.1
10000.1
10000.1
10000.1
10000.1
10000.1
10000.1
10000.1
10000.1
10000.1
10000.1
10000.1
10000.1
10000.1
10000.1
10000.1
10000.1
10000.1
10000.1
10000.1
10000.1
10000.1
10000.1
10000.1
10000.1
10000.1
10000.1
10000.1
10000.1
10000.1
10000.1
10000.1
10000.1
10000.1
10000.1
10000.1
10000.1
10000.1
10000.1
10000.1
10000.1
10000.1
10000.1
10000.1
10000.1
10000.1
10000.1
10000.1
10000.1
10000.1
10000.1
10000.1
10000.1
10000.1
10000.1
10000.1
10000.1
10000.1
10000.1
10000.1
10000.1
10000.1
10000.1
10000.1
10000.1
10000.1
10000.1
10000.1
10000.1
10000.1
10000.1
10000.1
10000.1
10000.1
10000.1
10000.1
10000.1
10000.1
10000.1
10000.1
10000.1
10000.1
10000.1
10000.1
10000.1
10000.1
10000.1
10000.1
10000.1
10000.1
10000.1
10000.1
10000.1
10000.1
10000.1
10000.1
10000.1
10000.1
10000.1
10000.1
10000.1
10000.1
10000.1
10000.1
10000.1
10000.1
10000.1
10000.1
10000.1
10000.1
10000.1
10000.1
10000.1
10000.1
10000.1
10000.1
10000.1
10000.1
10000.1
10000.1
10000.1
10000.1
10000.1
10000.1
10000.1
10000.1
10000.1
10000.1
10000.1
10000.1
10000.1
10000.1
10000.1
10000.1
10000.1
10000.1
10000.1
10000.1
10000.1
10000.1
10000.1
10000.1
10000.1
10000.1
10000.1
10000.1
10000.1
10000.1
10000.1
10000.1
10000.1
10000.1
10000.1
10000.1
10000.1
10000.1
10000.1
10000.1
10000.1
10000.1
10000.1
10000.1
10000.1
10000.1
10000.1
10000.1
10000.1
10000.1
10000.1
10000.1
10000.1
10000.1
10000.1
10000.1
10000.1
10000.1
10000.1
10000.1
10000.1
10000.1
10000.1
10000.1
10000.1
10000.1
10000.1
10000.1
10000.1
10000.1
10000.1
10000.1
10000.1
10000.1
10000.1
10000.1
10000.1
10000.1
10000.1
10000.1
10000.1
10000.1
10000.1
10000.1
10000.1
10000.1
10000.1
10000.1
10000.1
10000.1
10000.1
10000.1
10000.1
10000.1
10000.1
10000.1
10000.1
10000.1
10000.1
10000.1
10000.1
10000.1
10000.1
10000.1
10000.1
10000.1
10000.1
10000.1
10000.1
10000.1
10000.1
10000.1
10000.1
10000.1
10000.1
10000.1
10000.1
10000.1
10000.1
10000.1
10000.1
10000.1
10000.1
10000.1
10000.1
10000.1
10000.1
10000.1
10000.1
10000.1
10000.1
10000.1
10000.1
10000.1
10000.1
10000.1
10000.1
10000.1
10000.1
10000.1
10000.1
10000.1
10000.1
10000.1
10000.1
10000.1
10000.1
10000.1
10000.1
10000.1
10000.1
10000.1
10000.1
10000.1
10000.1
10000.1
10000.1
10000.1
10000.1
10000.1
10000.1
10000.1
10000.1
10000.1
10000.1
10000.1
10000.1
10000.1
10000.1
10000.1
10000.1
10000.1
10000.1
10000.1
10000.1
10000.1
10000.1
10000.1
10000.1
10000.1
10000.1
10000.1
10000.1
10000.1
10000.1
10000.1
10000.1
10000.1
10000.1
10000.1
10000.1
10000.1
10000.1
10000.1
10000.1
10000.1
10000.1
10000.1
10000.1
10000.1
10000.1
10000.1
10000.1
10000.1
10000.1
10000.1
10000.1
10000.1
10000.1
10000.1
10000.1
10000.1
10000.1
10000.1
10000.1
10000.1
10000.1
10000.1
10000.1
10000.1
10000.1
10000.1
10000.1
10000.1
10000.1
10000.1
10000.1
10000.1
10000.1
10000.1
10000.1
10000.1
10000.1
10000.1
10000.1
10000.1
10000.1
10000.1
10000.1
10000.1
10000.1
10000.1
10000.1
10000.1
10000.1
10000.1
10000.1
10000.1
10000.1
10000.1
10000.1
10000.1
10000.1
10000.1
10000.1
10000.1
10000.1
10000.1
10000.1
10000.1
10000.1
10000.1
10000.1
10000.1
10000.1
10000.1
10000.1
10000.1
10000.1
10000.1
10000.1
10000.1
10000.1
10000.1
10000.1
10000.1
10000.1
10000.1
10000.1
10000.1
10000.1
10000.1
10000.1
10000.1
10000.1
10000.1
10000.1
10000.1
10000.1
10000.1
10000.1
10000.1
10000.1
10000.1
10000.1
10000.1
10000.1
10000.1
10000.1
10000.1
10000.1
10000.1
10000.1
10000.1
10000.1
10000.1
10000.1
10000.1
10000.1
10000.1
10000.1
10000.1
10000.1
10000.1
10000.1
10000.1
10000.1
10000.1
10000.1
10000.1
10000.1
10000.1
10000.1
10000.1
10000.1
10000.1
10000.1
10000.1
10000.1
10000.1
10000.1
10000.1
10000.1
10000.1
10000.1
10000.1
10000.1
10000.1
10000.1
10000.1
10000.1
10000.1
10000.1
10000.1
10000.1
10000.1
10000.1
10000.1
10000.1
10000.1
10000.1
10000.1
10000.1
10000.1
10000.1
10000.1
10000.1
10000.1
10000.1
10000.1
10000.1
10000.1
10000.1
10000.1
10000.1
10000.1
10000.1
10000.1
10000.1
10000.1
10000.1
10000.1
10000.1
10000.1
10000.1
10000.1
10000.1
10000.1
10000.1
10000.1
10000.1
10000.1
10000.1
10000.1
10000.1
10000.1
10000.1
10000.1
10000.1
10000.1
10000.1
10000.1
10000.1
10000.1
10000.1
10000.1
10000.1
10000.1
10000.1
10000.1
10000.1
10000.1
10000.1
10000.1
10000.1
10000.1
10000.1
10000.1
10000.1
10000.1
10000.1
10000.1
10000.1
10000.1
10000.1
10000.1
10000.1
10000.1
10000.1
10000.1
10000.1
10000.1
10000.1
10000.1
10000.1
10000.1
10000.1
10000.1
10000.1
10000.1
10000.1
10000.1
10000.1
10000.1
10000.1
10000.1
10000.1
10000.1
10000.1
10000.1
10000.1
10000.1
10000.1
10000.1
10000.1
10000.1
10000.1
10000.1
10000.1
10000.1
10000.1
10000.1
10000.1
10000.1
10000.1
10000.1
10000.1
10000.1
10000.1
10000.1
10000.1
10000.1
10000.1
10000.1
10000.1
10000.1
10000.1
10000.1
10000.1
10000.1
10000.1
10000.1
10000.1
10000.1
10000.1
10000.1
10000.1
10000.1
10000.1
10000.1
10000.1
10000.1
10000.1
10000.1
10000.1
10000.1
10000.1
10000.1
10000.1
10000.1
10000.1
10000.1
10000.1
10000.1
10000.1
10000.1
10000.1
10000.1
10000.1
10000.1
10000.1
10000.1
10000.1
10000.1
10000.1
10000.1
10000.1
10000.1
10000.1
10000.1
10000.1
10000.1
10000.1
10000.1
10000.1
10000.1
10000.1
10000.1
10000.1
10000.1
10000.1
10000.1
10000.1
10000.1
10000.1
10000.1
10000.1
10000.1
10000.1
10000.1
10000.1
10000.1
10000.1
10000.1
10000.1
10000.1
10000.1
10000.1
10000.1
10000.1
10000.1
10000.1
10000.1
10000.1
10000.1
10000.1
10000.1
10000.1
10000.1
10000.1
10000.1
10000.1
10000.1
10000.1
10000.1
10000.1
10000.1
10000.1
10000.1
10000.1
10000.1
10000.1
10000.1
10000.1
10000.1
10000.1
10000.1
10000.1
10000.1
10000.1
10000.1
10000.1
10000.1
10000.1
10000.1
10000.1
10000.1
10000.1
10000.1
10000.1
10000.1
10000.1
10000.1
10000.1
10000.1
10000.1
10000.1
10000.1
10000.1
10000.1
10000.1
10000.1
10000.1
10000.1
10000.1
10000.1
10000.1
10000.1
10000.1
10000.1
10000.1
10000.1
10000.1
10000.1
10000.1
10000.1
10000.1
10000.1
10000.1
10000.1
10000.1
10000.1
10000.1
10000.1
10000.1
10000.1
10000.1
10000.1
10000.1
10000.1
10000.1
10000.1
10000.1
10000.1
10000.1
10000.1
10000.1
10000.1
10000.1
10000.1
10000.1
10000.1
10000.1
10000.1
10000.1
10000.1
10000.1
10000.1
10000.1
10000.1
10000.1
10000.1
10000.1
10000.1
10000.1
10000.1
10000.1
10000.1
10000.1
10000.1
10000.1
10000.1
10000.1
10000.1
10000.1
10000.1
10000.1
10000.1
10000.1
10000.1
10000.1
10000.1
10000.1
10000.1
10000.1
10000.1
10000.1
10000.1
10000.1
10000.1
10000.1
10000.1
10000.1
10000.1
10000.1
10000.1
10000.1
10000.1
10000.1
10000.1
10000.1
10000.1
10000.1
10000.1
10000.1
10000.1
10000.1
10000.1
10000.1
10000.1
10000.1
10000.1
10000.1
10000.1
10000.1
10000.1
10000.1
10000.1
10000.1
10000.1
10000.1
10000.1
10000.1
10000.1
10000.1
10000.1
10000.1
10000.1
10000.1
10000.1
10000.1
10000.1
10000.1
10000.1
10000.1
10000.1
10000.1
10000.1
10000.1
10000.1
10000.1
10000.1
10000.1
10000.1
10000.1
10000.1
10000.1
10000.1
10000.1
10000.1
10000.1
10000.1
10000.1
10000.1
10000.1
10000.1
10000.1
10000.1
10000.1
10000.1
10000.1
10000.1
10000.1
10000.1
10000.1
10000.1
10000.1
10000.1
10000.1
10000.1
10000.1
10000.1
10000.1
10000.1
10000.1
10000.1
10000.1
10000.1
10000.1
10000.1
10000.1
10000.1
10000.1
10000.1
10000.1
10000.1
10000.1
10000.1
10000.1
10000.1
10000.1
10000.1
10000.1
10000.1
10000.1
10000.1
10000.1
10000.1
10000.1
10000.1
10000.1
10000.1
10000.1
10000.1
10000.1
10000.1
10000.1
10000.1
10000.1
10000.1
10000.1
10000.1
10000.1
10000.1
10000.1
10000.1
10000.1
10000.1
10000.1
10000.1
10000.1
10000.1
10000.1
10000.1
10000.1
10000.1
10000.1
10000.1
10000.1
10000.1
10000.1
10000.1
10000.1
10000.1
10000.1
10000.1
10000.1
10000.1
10000.1
10000.1
10000.1
10000.1
10000.1
10000.1
10000.1
10000.1
10000.1
10000.1
10000.1
10000.1
10000.1
10000.1
10000.1
10000.1
10000.1
10000.1
10000.1
10000.1
10000.1
10000.1
10000.1
10000.1
10000.1
10000.1
10000.1
10000.1
10000.1
10000.1
10000.1
10000.1
10000.1
10000.1
10000.1
10000.1
10000.1
10000.1
10000.1
10000.1
10000.1
10000.1
10000.1
10000.1
10000.1
10000.1
10000.1
10000.1
10000.1
10000.1
10000.1
10000.1
10000.1
10000.1
10000.1
10000.1
10000.1
10000.1
10000.1
10000.1
10000.1
10000.1
10000.1
10000.1
10000.1
10000.1
10000.1
10000.1
10000.1
10000.1
10000.1
10000.1
10000.1
10000.1
10000.1
10000.1
10000.1
10000.1
10000.1
10000.1
10000.1
10000.1
10000.1
10000.1
10000.1
10000.1
10000.1
10000.1
10000.1
10000.1
10000.1
10000.1
10000.1
10000.1
10000.1
10000.1
10000.1
10000.1
10000.1
10000.1
10000.1
10000.1
10000.1
10000.1
10000.1
10000.1
10000.1
10000.1
10000.1
10000.1
10000.1
10000.1
10000.1
10000.1
10000.1
10000.1