/*--------------------------------*- C++ -*----------------------------------*\
  =========                 |
  \\      /  F ield         | OpenFOAM: The Open Source CFD Toolbox
   \\    /   O peration     | Website:  https://openfoam.org
    \\  /    A nd           | Version:  7
     \\/     M anipulation  |
\*---------------------------------------------------------------------------*/
FoamFile
{
    version     2.0;
    format      ascii;
    class       surfaceScalarField;
    location    "0.01";
    object      phi;
}
// * * * * * * * * * * * * * * * * * * * * * * * * * * * * * * * * * * * * * //

dimensions      [0 3 -1 0 0 0 0];

internalField   nonuniform List<scalar> 
21139
(
3.22035e-07
2.47459e-06
-3.13662e-07
2.69601e-06
2.42924e-08
2.97198e-06
7.92533e-08
2.72527e-06
2.39823e-08
2.67459e-06
-1.22086e-08
2.73295e-06
-2.25394e-08
2.72687e-06
-3.51564e-09
2.74103e-06
1.14492e-10
2.75507e-06
2.72662e-09
2.75915e-06
1.8988e-09
2.75513e-06
2.05241e-09
2.75387e-06
-5.00532e-09
2.75191e-06
-7.19556e-09
2.75289e-06
-8.1667e-09
2.7529e-06
-6.68589e-09
2.75303e-06
5.52957e-10
2.75601e-06
4.77036e-09
2.75493e-06
-1.59471e-09
2.7469e-06
-9.4469e-09
2.73676e-06
-4.89231e-09
2.72845e-06
-3.83208e-09
2.72988e-06
-3.68401e-08
2.76472e-06
-7.1857e-08
2.84987e-06
-8.24707e-08
2.93638e-06
2.80278e-06
4.33684e-07
2.69461e-06
-1.27768e-08
2.46448e-06
-1.8921e-07
2.6218e-06
1.87402e-08
2.77049e-06
6.29421e-08
2.76231e-06
-1.54001e-08
2.66859e-06
-4.71176e-09
2.66689e-06
1.05137e-08
2.6801e-06
2.83329e-09
2.68027e-06
-1.45383e-09
2.67813e-06
-3.22092e-11
2.67884e-06
2.14408e-10
2.68043e-06
-4.93107e-09
2.67901e-06
-8.09743e-09
2.67648e-06
-7.74271e-09
2.6765e-06
-4.47776e-09
2.67896e-06
-1.2536e-09
2.6842e-06
-3.94579e-09
2.68922e-06
-1.27377e-08
2.6897e-06
-1.74502e-08
2.69069e-06
-3.03862e-09
2.68705e-06
2.6879e-08
2.65108e-06
3.62464e-08
2.59909e-06
1.19987e-08
2.60116e-06
-1.48033e-07
2.68516e-06
2.78705e-06
1.91742e-07
3.00744e-06
1.27908e-07
2.87462e-06
-5.17596e-08
2.71417e-06
1.04748e-08
2.79161e-06
-2.15877e-08
2.8631e-06
-1.58093e-08
2.84288e-06
7.5091e-09
2.84708e-06
9.50837e-09
2.84839e-06
1.87456e-09
2.84275e-06
7.54881e-10
2.84095e-06
1.56118e-09
2.84345e-06
-1.60532e-09
2.84419e-06
-7.73537e-09
2.84235e-06
-9.75014e-09
2.84036e-06
-5.34134e-09
2.84027e-06
2.13405e-09
2.84009e-06
3.84937e-09
2.83791e-06
-3.46203e-09
2.83325e-06
-1.17155e-08
2.82866e-06
-2.09964e-08
2.83431e-06
-3.74215e-08
2.85421e-06
-2.52806e-08
2.85839e-06
3.58921e-08
2.82552e-06
8.72199e-08
2.74107e-06
-4.86617e-08
2.70662e-06
2.73687e-06
6.2419e-08
2.71994e-06
-1.82151e-08
2.7003e-06
2.2761e-08
2.72424e-06
7.69505e-08
2.72097e-06
-3.94393e-08
2.63376e-06
-1.28446e-08
2.66668e-06
7.56444e-09
2.68566e-06
3.91846e-09
2.67959e-06
1.96804e-09
2.67428e-06
3.86489e-09
2.67623e-06
2.33427e-09
2.67861e-06
-3.68053e-09
2.67699e-06
-9.93782e-09
2.67409e-06
-1.10745e-08
2.67404e-06
-5.40956e-09
2.6788e-06
1.30609e-09
2.6849e-06
-6.35858e-10
2.68723e-06
-9.34392e-09
2.68486e-06
-6.4625e-09
2.67779e-06
-1.54975e-09
2.66659e-06
-3.3655e-08
2.66548e-06
-5.83111e-08
2.69936e-06
-4.16699e-08
2.7548e-06
5.17541e-08
2.75275e-06
-1.89033e-08
2.6938e-06
2.69612e-06
4.4516e-08
2.73172e-06
8.93384e-09
2.63611e-06
2.0141e-08
2.68631e-06
-9.0096e-09
2.71518e-06
-7.8775e-09
2.67349e-06
4.88471e-09
2.69177e-06
1.23696e-09
2.69398e-06
3.06871e-10
2.68863e-06
4.73302e-09
2.68958e-06
5.9438e-09
2.69314e-06
7.60791e-10
2.69302e-06
-6.65722e-09
2.68885e-06
-9.9429e-09
2.68452e-06
-6.73768e-09
2.68219e-06
7.78965e-10
2.68327e-06
4.14002e-09
2.68562e-06
-3.65995e-09
2.68698e-06
-1.70297e-08
2.69477e-06
-1.68541e-08
2.71109e-06
-1.56891e-09
2.71682e-06
-1.65659e-09
2.69817e-06
-6.76328e-09
2.68292e-06
-4.28295e-08
2.66375e-06
-4.53516e-09
2.67489e-06
-1.7688e-08
2.66125e-06
2.66397e-06
-4.59849e-08
2.67015e-06
6.2627e-08
2.76435e-06
4.12573e-08
2.70405e-06
-4.99336e-08
2.62861e-06
1.05293e-08
2.68361e-06
7.74244e-09
2.68673e-06
-2.80926e-09
2.67479e-06
2.20577e-09
2.6754e-06
7.86009e-09
2.681e-06
5.21056e-09
2.68247e-06
-3.17683e-09
2.68042e-06
-1.09486e-08
2.67858e-06
-1.22659e-08
2.67897e-06
-5.78233e-09
2.67995e-06
3.16616e-09
2.67856e-06
5.5365e-09
2.66971e-06
2.1956e-09
2.64886e-06
-7.60259e-10
2.62382e-06
-1.12e-08
2.60841e-06
-1.84383e-08
2.60065e-06
-1.71578e-08
2.59874e-06
-2.67388e-08
2.61592e-06
-3.32044e-08
2.61546e-06
-1.68876e-08
2.63233e-06
-1.4447e-08
2.63186e-06
2.62372e-06
4.35395e-08
2.43526e-06
9.00709e-09
2.48094e-06
-3.63644e-08
2.47715e-06
2.25706e-09
2.45895e-06
1.4603e-08
2.48755e-06
-2.42694e-09
2.47455e-06
-1.67944e-09
2.4706e-06
7.11492e-09
2.47741e-06
8.62933e-09
2.47949e-06
2.65585e-09
2.47505e-06
-4.73306e-09
2.47035e-06
-1.03629e-08
2.47013e-06
-1.12322e-08
2.47592e-06
-7.13084e-09
2.48699e-06
-5.48414e-09
2.50195e-06
-1.46967e-08
2.51933e-06
-2.32898e-08
2.53786e-06
-1.56457e-08
2.55538e-06
-1.94648e-08
2.57223e-06
-1.92925e-08
2.58096e-06
3.65198e-11
2.56612e-06
-2.72039e-08
2.57684e-06
-1.67257e-08
2.58204e-06
-1.83746e-08
2.58361e-06
-2.13549e-08
2.57921e-06
2.57138e-06
8.87397e-08
2.65087e-06
2.07347e-09
2.56473e-06
-5.54333e-08
2.52803e-06
3.05054e-08
2.61983e-06
3.26611e-09
2.60104e-06
-6.13094e-09
2.58762e-06
4.18538e-09
2.59653e-06
8.63247e-09
2.60251e-06
4.23034e-09
2.59854e-06
-1.87112e-09
2.59171e-06
-4.91861e-09
2.58636e-06
-4.64207e-09
2.58154e-06
-3.68512e-10
2.57561e-06
7.56011e-09
2.56734e-06
1.13279e-08
2.55661e-06
2.8866e-09
2.54401e-06
-6.3805e-09
2.53567e-06
7.19811e-10
2.52851e-06
-9.66698e-09
2.51882e-06
-3.33028e-08
2.54189e-06
1.07362e-08
2.54727e-06
-2.19843e-08
2.53789e-06
-1.5233e-08
2.52955e-06
-2.39343e-08
2.52066e-06
-2.92157e-08
2.52043e-06
2.52213e-06
1.04214e-08
2.51835e-06
-3.00837e-08
2.4936e-06
2.46617e-08
2.48984e-06
1.29046e-08
2.52386e-06
-7.7481e-09
2.49885e-06
2.8354e-09
2.50519e-06
1.00265e-08
2.51506e-06
5.05357e-09
2.51189e-06
-2.87223e-09
2.50535e-06
-7.56804e-09
2.50618e-06
-9.63974e-09
2.51351e-06
-1.04203e-08
2.52002e-06
-7.57545e-09
2.52182e-06
-1.19209e-09
2.5168e-06
1.15692e-09
2.50609e-06
-3.6643e-09
2.49209e-06
-1.1763e-08
2.48915e-06
-7.48856e-09
2.50126e-06
1.17174e-08
2.49e-06
-3.00727e-08
2.47784e-06
6.39662e-10
2.48021e-06
-3.06284e-08
2.47281e-06
-2.42878e-08
2.47252e-06
-2.54164e-08
2.47012e-06
-2.80199e-08
2.47622e-06
2.48192e-06
-9.83024e-09
2.35714e-06
-2.69858e-08
2.35531e-06
5.0319e-08
2.43033e-06
-9.07062e-09
2.38328e-06
-2.87572e-09
2.38191e-06
1.10028e-08
2.39774e-06
7.57798e-09
2.39584e-06
-5.76862e-10
2.38258e-06
-2.21189e-09
2.37318e-06
-8.58203e-10
2.3765e-06
-3.06758e-09
2.38723e-06
-7.96937e-09
2.40012e-06
-1.08469e-08
2.4151e-06
-1.10487e-08
2.42784e-06
-1.21604e-08
2.43668e-06
-6.06788e-09
2.43321e-06
5.06882e-10
2.41775e-06
-1.77269e-08
2.41612e-06
-2.31272e-09
2.42872e-06
-2.96461e-08
2.42024e-06
-7.79071e-09
2.42467e-06
-3.1212e-08
2.42685e-06
-2.54307e-08
2.43591e-06
-2.0182e-08
2.43744e-06
-2.16138e-08
2.44408e-06
2.44603e-06
-1.14753e-08
2.39746e-06
4.93305e-08
2.42217e-06
5.72264e-09
2.4273e-06
-8.82771e-09
2.39672e-06
1.01331e-08
2.41639e-06
7.04719e-09
2.42116e-06
-5.59333e-09
2.40966e-06
-9.46941e-09
2.39915e-06
1.12561e-09
2.3913e-06
1.00014e-08
2.39318e-06
1.00831e-08
2.38811e-06
7.37643e-09
2.37589e-06
2.6085e-09
2.37197e-06
-3.46589e-09
2.36822e-06
-1.6847e-08
2.37181e-06
-2.16376e-08
2.38254e-06
-1.19688e-09
2.38303e-06
-5.40781e-09
2.37364e-06
-1.0167e-08
2.39032e-06
-2.46202e-08
2.39812e-06
-5.57396e-09
2.40553e-06
-2.0707e-08
2.40507e-06
-2.02525e-08
2.40928e-06
-1.76824e-08
2.40796e-06
-1.86659e-08
2.41e-06
2.4085e-06
6.12134e-09
2.3769e-06
5.70289e-08
2.43716e-06
-2.0595e-08
2.36334e-06
9.57004e-09
2.37979e-06
1.33679e-08
2.39098e-06
-3.74397e-09
2.38012e-06
-1.44221e-08
2.37231e-06
-1.13507e-08
2.3774e-06
-1.54161e-09
2.38525e-06
5.12594e-09
2.3979e-06
2.95312e-09
2.39689e-06
-2.08731e-09
2.38306e-06
-1.80985e-09
2.37501e-06
3.36138e-10
2.36672e-06
-5.1893e-09
2.36219e-06
-1.7198e-08
2.37042e-06
-1.1199e-08
2.38317e-06
9.25605e-09
2.37842e-06
-5.12267e-09
2.37875e-06
-1.90905e-08
2.3827e-06
-5.6013e-09
2.38452e-06
-1.48403e-08
2.37633e-06
-1.8432e-08
2.37341e-06
-1.877e-08
2.37154e-06
-1.9019e-08
2.3698e-06
2.36756e-06
5.81911e-08
2.37354e-06
-8.69448e-09
2.36524e-06
-7.58053e-10
2.33949e-06
1.97827e-08
2.36143e-06
1.34278e-09
2.34649e-06
-1.14877e-08
2.32983e-06
-9.03016e-09
2.33056e-06
1.57709e-09
2.34142e-06
6.39428e-09
2.35374e-06
4.59465e-09
2.36682e-06
-5.58353e-09
2.37424e-06
-1.5428e-08
2.37382e-06
-1.10528e-08
2.36967e-06
-2.59966e-09
2.36445e-06
4.0961e-09
2.35736e-06
-1.03714e-09
2.35434e-06
-1.76352e-08
2.3598e-06
9.48474e-09
2.35618e-06
-4.38026e-09
2.34356e-06
-2.00341e-08
2.33826e-06
-1.22724e-08
2.33674e-06
-1.66904e-08
2.33003e-06
-2.01863e-08
2.32717e-06
-1.91646e-08
2.32728e-06
-1.92088e-08
2.32634e-06
2.3245e-06
5.38888e-08
2.35416e-06
-2.94278e-08
2.29065e-06
2.12396e-08
2.32896e-06
4.21648e-09
2.32299e-06
-1.64804e-08
2.30252e-06
-1.21871e-08
2.29548e-06
2.33484e-10
2.30611e-06
1.35143e-08
2.30843e-06
1.94751e-08
2.30289e-06
1.17831e-08
2.29872e-06
-6.32033e-09
2.29995e-06
-1.82057e-08
2.30383e-06
-1.61992e-08
2.30757e-06
-7.86609e-09
2.30561e-06
2.39423e-09
2.29858e-06
4.30708e-09
2.29219e-06
-2.22825e-08
2.29195e-06
-1.26407e-09
2.29195e-06
-8.64818e-09
2.28042e-06
-2.12004e-08
2.27439e-06
-1.71545e-08
2.27751e-06
-1.81163e-08
2.27731e-06
-1.96191e-08
2.27765e-06
-1.90129e-08
2.2794e-06
-1.98114e-08
2.28002e-06
2.27958e-06
-9.68907e-09
2.21415e-06
8.25119e-09
2.20197e-06
1.59626e-08
2.22439e-06
-1.47103e-08
2.20062e-06
-1.79497e-08
2.20156e-06
-8.41356e-09
2.21464e-06
1.90968e-09
2.23224e-06
1.0834e-08
2.23155e-06
1.57432e-08
2.21669e-06
1.14321e-08
2.19961e-06
-2.04223e-09
2.19093e-06
-1.50702e-08
2.19409e-06
-1.9066e-08
2.20656e-06
-1.35193e-08
2.21445e-06
-1.19043e-09
2.21319e-06
2.88639e-09
2.21218e-06
-2.41785e-08
2.21552e-06
-1.17568e-08
2.22289e-06
-1.34002e-08
2.22002e-06
-1.82743e-08
2.21458e-06
-1.7265e-08
2.22603e-06
-1.70969e-08
2.22909e-06
-1.80962e-08
2.23083e-06
-1.89565e-08
2.2331e-06
-2.07021e-08
2.23471e-06
2.23643e-06
-2.7418e-08
2.10484e-06
2.93453e-08
2.14449e-06
-5.35375e-09
2.1221e-06
-1.1071e-08
2.11177e-06
1.86916e-09
2.13104e-06
2.99754e-09
2.14938e-06
6.10875e-10
2.16032e-06
-1.63582e-09
2.16114e-06
-9.54986e-10
2.15307e-06
1.82425e-09
2.1399e-06
2.15667e-09
2.12983e-06
-3.98639e-09
2.13149e-06
-1.24025e-08
2.14459e-06
-1.36021e-08
2.15837e-06
2.72834e-11
2.16155e-06
5.30853e-09
2.16291e-06
-1.73535e-08
2.16681e-06
-1.22298e-08
2.17514e-06
-1.07065e-08
2.17641e-06
-1.6673e-08
2.17221e-06
-1.6576e-08
2.18324e-06
-1.59579e-08
2.18677e-06
-1.72686e-08
2.18897e-06
-1.91075e-08
2.19158e-06
-2.07817e-08
2.1943e-06
2.19764e-06
1.30436e-08
2.13145e-06
5.74604e-09
2.14798e-06
-1.59673e-08
2.12427e-06
7.59173e-09
2.13923e-06
2.01264e-08
2.15404e-06
1.37309e-08
2.15385e-06
1.01341e-09
2.14868e-06
-8.83582e-09
2.14621e-06
-1.1428e-08
2.14553e-06
-6.82662e-09
2.14309e-06
2.34637e-09
2.13757e-06
8.47583e-09
2.13435e-06
1.96831e-09
2.13776e-06
-7.47314e-09
2.14552e-06
1.18272e-09
2.14679e-06
6.56116e-09
2.14314e-06
-1.02977e-08
2.14123e-06
-1.04581e-08
2.14488e-06
-8.06605e-09
2.14448e-06
-1.57876e-08
2.14295e-06
-1.57919e-08
2.14747e-06
-1.52579e-08
2.15103e-06
-1.60643e-08
2.15403e-06
-1.77451e-08
2.15717e-06
-1.89576e-08
2.16028e-06
2.16315e-06
2.94074e-08
2.17226e-06
-1.87194e-08
2.15244e-06
-2.73895e-09
2.16329e-06
2.11397e-08
2.18578e-06
1.99345e-08
2.18171e-06
8.96212e-09
2.1635e-06
-1.58086e-09
2.14803e-06
-7.94859e-09
2.14215e-06
-1.13542e-08
2.14549e-06
-1.0902e-08
2.15126e-06
-1.62031e-09
2.15146e-06
1.16716e-08
2.1445e-06
1.02612e-08
2.13748e-06
-3.37873e-09
2.13486e-06
-2.20984e-09
2.13428e-06
2.00836e-09
2.12533e-06
-9.16229e-09
2.11846e-06
-1.19109e-08
2.11821e-06
-1.01477e-08
2.1176e-06
-1.2292e-08
2.1174e-06
-1.29458e-08
2.11982e-06
-1.29982e-08
2.12246e-06
-1.36466e-08
2.12508e-06
-1.51418e-08
2.12734e-06
-1.65152e-08
2.12884e-06
2.12948e-06
7.12312e-09
2.12724e-06
-6.79557e-09
2.11658e-06
2.05896e-08
2.14557e-06
1.92465e-08
2.15092e-06
3.75062e-09
2.13343e-06
-5.68258e-09
2.11536e-06
-6.91072e-09
2.10649e-06
-5.02648e-09
2.10462e-06
-6.42323e-09
2.11058e-06
-1.11512e-08
2.1204e-06
-8.20599e-09
2.12592e-06
4.40285e-09
2.12166e-06
7.3173e-09
2.11209e-06
-6.14066e-09
2.10499e-06
-7.45973e-09
2.10444e-06
-4.10266e-09
2.09812e-06
-9.49984e-09
2.09225e-06
-1.19551e-08
2.09121e-06
-1.04042e-08
2.09157e-06
-1.01757e-08
2.09243e-06
-1.00446e-08
2.09395e-06
-1.02548e-08
2.09515e-06
-1.12661e-08
2.09591e-06
-1.34337e-08
2.0963e-06
-1.53975e-08
2.09439e-06
2.09303e-06
-2.81154e-09
2.05444e-06
2.1426e-08
2.07322e-06
2.74371e-08
2.079e-06
5.03839e-09
2.06042e-06
-1.17927e-08
2.04367e-06
-1.51332e-08
2.03965e-06
-7.37003e-09
2.0441e-06
5.58623e-10
2.05119e-06
1.51323e-09
2.05761e-06
-6.98846e-09
2.06602e-06
-1.27252e-08
2.07319e-06
-5.50075e-09
2.07425e-06
1.56745e-10
2.06872e-06
-9.81988e-09
2.0644e-06
-1.12006e-08
2.06552e-06
-8.32678e-09
2.06553e-06
-9.49954e-09
2.06318e-06
-1.02919e-08
2.06319e-06
-9.31239e-09
2.06385e-06
-8.68622e-09
2.06386e-06
-8.66591e-09
2.06345e-06
-9.33678e-09
2.06235e-06
-1.10148e-08
2.06075e-06
-1.34933e-08
2.05918e-06
-1.6543e-08
2.05566e-06
2.05373e-06
1.8279e-08
2.02681e-06
2.76989e-08
2.04222e-06
1.08319e-08
2.01726e-06
-9.97645e-09
1.99145e-06
-1.50957e-08
1.98493e-06
-1.15828e-08
1.99428e-06
2.32911e-10
2.00272e-06
7.12751e-09
2.01608e-06
8.82517e-09
2.01759e-06
-7.6779e-10
2.01974e-06
-1.24602e-08
2.02336e-06
-1.10964e-08
2.02575e-06
-4.27747e-09
2.0235e-06
-9.49192e-09
2.02356e-06
-1.21596e-08
2.02638e-06
-9.17845e-09
2.02859e-06
-8.64087e-09
2.02813e-06
-9.01427e-09
2.02841e-06
-8.7002e-09
2.02824e-06
-8.63736e-09
2.02673e-06
-9.40932e-09
2.02458e-06
-1.07597e-08
2.0219e-06
-1.2874e-08
2.01925e-06
-1.51833e-08
2.01684e-06
-1.83276e-08
2.01466e-06
2.01414e-06
3.66151e-08
2.01666e-06
5.90029e-09
1.99822e-06
-1.1946e-08
1.97249e-06
-1.44232e-08
1.96263e-06
-4.0102e-09
1.96749e-06
4.76424e-09
1.97966e-06
6.7277e-09
1.98448e-06
7.40933e-09
1.99199e-06
7.48562e-09
1.98637e-06
2.76101e-10
1.98041e-06
-1.12695e-08
1.97805e-06
-1.39328e-08
1.9793e-06
-4.91462e-09
1.97474e-06
-7.32101e-09
1.9804e-06
-1.02097e-08
1.98215e-06
-9.01141e-09
1.9843e-06
-8.77174e-09
1.98446e-06
-9.39726e-09
1.98427e-06
-9.8974e-09
1.98342e-06
-1.04833e-08
1.98145e-06
-1.1707e-08
1.97942e-06
-1.3175e-08
1.97712e-06
-1.50286e-08
1.97576e-06
-1.69626e-08
1.97493e-06
-1.89061e-08
1.97499e-06
1.97658e-06
2.29015e-08
1.96356e-06
-1.80959e-08
1.93133e-06
-2.06402e-08
1.93005e-06
-9.01443e-09
1.94399e-06
9.01453e-09
1.95502e-06
1.73386e-08
1.96056e-06
7.6292e-09
1.95897e-06
1.12393e-09
1.9544e-06
-8.81763e-10
1.94462e-06
-3.29431e-09
1.93423e-06
-9.83925e-09
1.92878e-06
-1.17578e-08
1.92927e-06
-8.01712e-09
1.92593e-06
-7.54425e-09
1.93261e-06
-9.38214e-09
1.93408e-06
-9.68558e-09
1.93573e-06
-1.01426e-08
1.93629e-06
-1.09269e-08
1.93635e-06
-1.1711e-08
1.93626e-06
-1.24848e-08
1.93554e-06
-1.35064e-08
1.93524e-06
-1.46747e-08
1.93482e-06
-1.59972e-08
1.93563e-06
-1.7106e-08
1.93696e-06
-1.81075e-08
1.93882e-06
1.9412e-06
-8.04302e-09
1.875e-06
-1.71328e-08
1.86693e-06
-1.17589e-08
1.88971e-06
1.28497e-10
1.91257e-06
1.37601e-08
1.92229e-06
1.58555e-08
1.92029e-06
4.02884e-09
1.91161e-06
-7.15989e-09
1.90268e-06
-9.66966e-09
1.8942e-06
-8.34171e-09
1.88682e-06
-9.35842e-09
1.8837e-06
-8.85724e-09
1.88466e-06
-1.0046e-08
1.88647e-06
-8.19176e-09
1.88999e-06
-9.24486e-09
1.892e-06
-1.03107e-08
1.89353e-06
-1.1203e-08
1.89444e-06
-1.21305e-08
1.89516e-06
-1.268e-08
1.8961e-06
-1.33753e-08
1.89696e-06
-1.4034e-08
1.89823e-06
-1.48651e-08
1.89958e-06
-1.55832e-08
1.90141e-06
-1.61238e-08
1.90345e-06
-1.70222e-08
1.9053e-06
1.90709e-06
-1.76826e-08
1.81711e-06
6.80055e-09
1.84214e-06
5.52468e-09
1.86594e-06
8.24902e-09
1.87845e-06
1.15858e-08
1.88026e-06
7.83162e-09
1.8728e-06
-3.90869e-09
1.86212e-06
-1.38863e-08
1.8552e-06
-1.54355e-08
1.85283e-06
-1.15342e-08
1.85217e-06
-9.40377e-09
1.85373e-06
-8.29586e-09
1.85655e-06
-7.48851e-09
1.85972e-06
-7.02206e-09
1.86221e-06
-8.48837e-09
1.86335e-06
-1.01366e-08
1.86397e-06
-1.12274e-08
1.86446e-06
-1.20722e-08
1.86501e-06
-1.24557e-08
1.86593e-06
-1.29422e-08
1.86702e-06
-1.34167e-08
1.86818e-06
-1.40923e-08
1.86938e-06
-1.46705e-08
1.87055e-06
-1.53541e-08
1.87138e-06
-1.67598e-08
1.87153e-06
1.87221e-06
5.47105e-09
1.81965e-06
2.83622e-08
1.85495e-06
1.66875e-08
1.85725e-06
9.43907e-09
1.85472e-06
4.13189e-09
1.84814e-06
-2.56096e-09
1.83821e-06
-1.08809e-08
1.82974e-06
-1.63066e-08
1.82686e-06
-1.51295e-08
1.82974e-06
-9.17493e-09
1.83386e-06
-6.20133e-09
1.83821e-06
-4.96383e-09
1.84002e-06
-4.98084e-09
1.8415e-06
-5.89778e-09
1.84176e-06
-7.93782e-09
1.84086e-06
-9.78213e-09
1.83931e-06
-1.08945e-08
1.83817e-06
-1.14258e-08
1.83746e-06
-1.1745e-08
1.83727e-06
-1.21811e-08
1.83732e-06
-1.26963e-08
1.83711e-06
-1.34096e-08
1.83679e-06
-1.43305e-08
1.83627e-06
-1.56879e-08
1.83509e-06
-1.74195e-08
1.83362e-06
1.83267e-06
3.63896e-08
1.84123e-06
2.90155e-08
1.85589e-06
1.34007e-08
1.83762e-06
2.5348e-09
1.82758e-06
-5.94129e-09
1.81913e-06
-1.1268e-08
1.81195e-06
-1.38578e-08
1.80899e-06
-1.41135e-08
1.81079e-06
-1.07086e-08
1.81575e-06
-5.022e-09
1.82056e-06
-2.29769e-09
1.82398e-06
-2.06837e-09
1.82194e-06
-3.67763e-09
1.81967e-06
-5.90934e-09
1.81617e-06
-8.71289e-09
1.81336e-06
-1.03251e-08
1.80876e-06
-1.11765e-08
1.80544e-06
-1.13151e-08
1.80292e-06
-1.15005e-08
1.80138e-06
-1.22452e-08
1.80038e-06
-1.29271e-08
1.79858e-06
-1.37735e-08
1.79692e-06
-1.51411e-08
1.79521e-06
-1.70749e-08
1.79294e-06
-1.8858e-08
1.79109e-06
1.78861e-06
4.63874e-08
1.82113e-06
9.73233e-09
1.80156e-06
8.67143e-10
1.78205e-06
-5.1085e-09
1.77482e-06
-1.30015e-08
1.77433e-06
-1.45522e-08
1.77167e-06
-1.23695e-08
1.77508e-06
-9.02112e-09
1.78018e-06
-5.51588e-09
1.78542e-06
-2.37052e-09
1.78856e-06
-1.01567e-09
1.7891e-06
-2.5762e-09
1.78464e-06
-5.55601e-09
1.78007e-06
-8.52084e-09
1.77467e-06
-1.08166e-08
1.77062e-06
-1.21646e-08
1.76503e-06
-1.26417e-08
1.761e-06
-1.23782e-08
1.75759e-06
-1.22272e-08
1.75579e-06
-1.34434e-08
1.75554e-06
-1.40522e-08
1.75234e-06
-1.49486e-08
1.75022e-06
-1.65635e-08
1.74842e-06
-1.81572e-08
1.74631e-06
-2.02103e-08
1.74506e-06
1.74388e-06
3.06063e-08
1.74073e-06
-9.17749e-09
1.70468e-06
-8.57665e-09
1.70081e-06
-8.27807e-09
1.7033e-06
-1.10309e-08
1.71196e-06
-1.10898e-08
1.7153e-06
-7.50829e-09
1.72147e-06
-3.93676e-09
1.7268e-06
-2.15231e-09
1.73034e-06
-2.07207e-09
1.73106e-06
-3.33663e-09
1.72928e-06
-7.08319e-09
1.72438e-06
-1.07925e-08
1.71987e-06
-1.34784e-08
1.71549e-06
-1.44479e-08
1.71178e-06
-1.49479e-08
1.70852e-06
-1.47575e-08
1.70616e-06
-1.444e-08
1.70429e-06
-1.40803e-08
1.70366e-06
-1.38333e-08
1.70431e-06
-1.42065e-08
1.70208e-06
-1.53258e-08
1.70092e-06
-1.72614e-08
1.69998e-06
-1.86091e-08
1.69839e-06
-2.09226e-08
1.69769e-06
1.69904e-06
5.89332e-09
1.63467e-06
-1.30912e-08
1.61593e-06
-6.54008e-09
1.62644e-06
-4.78376e-09
1.63785e-06
-3.43369e-09
1.64886e-06
-4.63957e-09
1.65735e-06
-2.56241e-09
1.66178e-06
-1.20246e-09
1.66545e-06
-2.00986e-09
1.66664e-06
-4.58921e-09
1.66557e-06
-7.72954e-09
1.66278e-06
-1.19539e-08
1.65883e-06
-1.52442e-08
1.65558e-06
-1.70144e-08
1.65327e-06
-1.73247e-08
1.65199e-06
-1.68153e-08
1.6516e-06
-1.59192e-08
1.6519e-06
-1.52907e-08
1.65256e-06
-1.47654e-08
1.65344e-06
-1.33855e-08
1.65424e-06
-1.36996e-08
1.65428e-06
-1.49034e-08
1.65432e-06
-1.66005e-08
1.65405e-06
-1.879e-08
1.65317e-06
-2.09895e-08
1.65233e-06
1.65363e-06
-8.71902e-09
1.55673e-06
-4.57343e-09
1.56384e-06
3.59328e-09
1.5801e-06
4.10389e-09
1.59118e-06
3.82747e-09
1.59906e-06
1.77964e-09
1.60623e-06
1.42768e-09
1.60642e-06
5.6515e-11
1.60701e-06
-3.01302e-09
1.60606e-06
-7.28719e-09
1.6042e-06
-1.15289e-08
1.60211e-06
-1.50867e-08
1.60032e-06
-1.73613e-08
1.59953e-06
-1.80614e-08
1.5999e-06
-1.75739e-08
1.60118e-06
-1.64252e-08
1.60296e-06
-1.51655e-08
1.60492e-06
-1.41632e-08
1.60672e-06
-1.35687e-08
1.60817e-06
-1.33322e-08
1.60913e-06
-1.39895e-08
1.60949e-06
-1.53776e-08
1.60943e-06
-1.68533e-08
1.60888e-06
-1.94686e-08
1.60789e-06
-2.13999e-08
1.60668e-06
1.60651e-06
-2.75726e-09
1.53057e-06
9.83924e-09
1.55023e-06
1.34717e-08
1.56291e-06
1.05305e-08
1.56635e-06
7.96561e-09
1.56717e-06
4.98232e-09
1.56953e-06
2.79383e-09
1.56447e-06
-4.31972e-10
1.56171e-06
-4.55408e-09
1.55876e-06
-9.10698e-09
1.55627e-06
-1.30098e-08
1.55475e-06
-1.57194e-08
1.55442e-06
-1.69544e-08
1.55533e-06
-1.68307e-08
1.5572e-06
-1.58805e-08
1.55955e-06
-1.45783e-08
1.56191e-06
-1.3446e-08
1.56386e-06
-1.27351e-08
1.56521e-06
-1.25806e-08
1.56581e-06
-1.30768e-08
1.56566e-06
-1.41894e-08
1.56481e-06
-1.59606e-08
1.5634e-06
-1.77415e-08
1.56167e-06
-2.02379e-08
1.55954e-06
-2.24435e-08
1.55762e-06
1.55637e-06
1.64441e-08
1.52803e-06
2.10999e-08
1.54578e-06
1.6306e-08
1.54651e-06
1.06079e-08
1.54206e-06
6.55436e-09
1.53657e-06
3.8942e-09
1.5344e-06
8.31249e-10
1.52672e-06
-2.88974e-09
1.52213e-06
-6.73023e-09
1.51816e-06
-1.04523e-08
1.51584e-06
-1.32819e-08
1.51501e-06
-1.48558e-08
1.5153e-06
-1.51994e-08
1.51653e-06
-1.46303e-08
1.51827e-06
-1.36734e-08
1.52002e-06
-1.27472e-08
1.52136e-06
-1.21844e-08
1.52197e-06
-1.21641e-08
1.52171e-06
-1.27053e-08
1.52055e-06
-1.38477e-08
1.51856e-06
-1.54691e-08
1.51595e-06
-1.75212e-08
1.51295e-06
-1.9652e-08
1.50991e-06
-2.19404e-08
1.50681e-06
-2.42965e-08
1.50394e-06
1.5022e-06
3.38934e-08
1.50916e-06
2.13936e-08
1.51522e-06
1.19123e-08
1.50241e-06
5.09665e-09
1.49618e-06
1.29821e-09
1.48884e-06
-2.42132e-10
1.48527e-06
-3.15201e-09
1.47925e-06
-6.50373e-09
1.47546e-06
-8.88301e-09
1.47152e-06
-1.12592e-08
1.47049e-06
-1.30589e-08
1.47059e-06
-1.37662e-08
1.47105e-06
-1.36295e-08
1.47191e-06
-1.30643e-08
1.47275e-06
-1.24873e-08
1.47318e-06
-1.22365e-08
1.47291e-06
-1.24859e-08
1.4718e-06
-1.33053e-08
1.46982e-06
-1.46156e-08
1.46707e-06
-1.63271e-08
1.4637e-06
-1.82989e-08
1.45995e-06
-2.03577e-08
1.45608e-06
-2.25308e-08
1.45242e-06
-2.45814e-08
1.44909e-06
-2.64162e-08
1.44613e-06
1.44447e-06
4.15294e-08
1.45034e-06
1.35621e-08
1.44171e-06
2.06711e-09
1.42572e-06
-2.5603e-09
1.42101e-06
-4.05056e-09
1.41691e-06
-4.10791e-09
1.41533e-06
-6.07658e-09
1.41343e-06
-8.52542e-09
1.41223e-06
-1.09052e-08
1.41053e-06
-1.26374e-08
1.41128e-06
-1.34585e-08
1.41261e-06
-1.35666e-08
1.41365e-06
-1.33119e-08
1.41449e-06
-1.30545e-08
1.41484e-06
-1.30748e-08
1.41446e-06
-1.35721e-08
1.41321e-06
-1.4593e-08
1.41112e-06
-1.60932e-08
1.40831e-06
-1.79553e-08
1.40497e-06
-1.99961e-08
1.40133e-06
-2.20427e-08
1.39761e-06
-2.38645e-08
1.39405e-06
-2.56834e-08
1.39086e-06
-2.73723e-08
1.38822e-06
-2.83646e-08
1.38634e-06
1.38534e-06
3.50183e-08
1.35625e-06
2.87763e-09
1.33818e-06
-6.16173e-09
1.32908e-06
-6.96311e-09
1.32791e-06
-6.19314e-09
1.32937e-06
-5.49591e-09
1.33153e-06
-6.78556e-09
1.33397e-06
-8.60987e-09
1.33567e-06
-1.13248e-08
1.33711e-06
-1.28798e-08
1.33932e-06
-1.32989e-08
1.34175e-06
-1.33576e-08
1.34381e-06
-1.34248e-08
1.34526e-06
-1.37659e-08
1.34591e-06
-1.45295e-08
1.34567e-06
-1.5767e-08
1.34455e-06
-1.74234e-08
1.34266e-06
-1.9376e-08
1.34024e-06
-2.14906e-08
1.33752e-06
-2.35718e-08
1.33476e-06
-2.54395e-08
1.33219e-06
-2.68791e-08
1.32998e-06
-2.81276e-08
1.32826e-06
-2.90883e-08
1.32707e-06
-2.94903e-08
1.32676e-06
1.32707e-06
1.79342e-08
1.25189e-06
-5.38413e-09
1.23638e-06
-7.06464e-09
1.23547e-06
-5.22735e-09
1.24e-06
-3.74492e-09
1.24543e-06
-3.85441e-09
1.25038e-06
-5.43071e-09
1.25521e-06
-7.40629e-09
1.25884e-06
-9.36981e-09
1.26208e-06
-1.06816e-08
1.26536e-06
-1.14316e-08
1.26849e-06
-1.20575e-08
1.27114e-06
-1.28673e-08
1.27309e-06
-1.40407e-08
1.27425e-06
-1.56286e-08
1.27463e-06
-1.75716e-08
1.27432e-06
-1.97344e-08
1.27347e-06
-2.19523e-08
1.27229e-06
-2.4089e-08
1.27101e-06
-2.59892e-08
1.26988e-06
-2.75022e-08
1.26904e-06
-2.84739e-08
1.26861e-06
-2.91645e-08
1.26864e-06
-2.93235e-08
1.26913e-06
-2.92109e-08
1.27005e-06
1.27148e-06
3.32544e-09
1.16498e-06
-5.59876e-09
1.16002e-06
-2.39877e-09
1.16549e-06
4.2932e-10
1.17285e-06
1.33392e-09
1.17862e-06
-8.93131e-11
1.18401e-06
-2.34295e-09
1.18853e-06
-4.58469e-09
1.19215e-06
-6.45352e-09
1.19554e-06
-7.87396e-09
1.19888e-06
-9.06353e-09
1.202e-06
-1.03321e-08
1.20468e-06
-1.18775e-08
1.20679e-06
-1.37776e-08
1.2083e-06
-1.60096e-08
1.2093e-06
-1.84513e-08
1.20991e-06
-2.09146e-08
1.21025e-06
-2.32093e-08
1.21049e-06
-2.52043e-08
1.21079e-06
-2.68107e-08
1.21129e-06
-2.79386e-08
1.21209e-06
-2.84616e-08
1.21319e-06
-2.86684e-08
1.21459e-06
-2.84528e-08
1.21629e-06
-2.77259e-08
1.21803e-06
1.21977e-06
-1.27851e-09
1.11411e-06
4.6016e-10
1.11937e-06
5.04832e-09
1.12665e-06
6.92196e-09
1.13209e-06
6.06135e-09
1.13519e-06
3.39366e-09
1.13851e-06
6.56199e-10
1.14059e-06
-1.68553e-09
1.14243e-06
-3.55326e-09
1.14444e-06
-5.13906e-09
1.14661e-06
-6.72021e-09
1.14873e-06
-8.51444e-09
1.15062e-06
-1.06027e-08
1.15219e-06
-1.29712e-08
1.15345e-06
-1.5555e-08
1.15451e-06
-1.82217e-08
1.15548e-06
-2.07687e-08
1.15647e-06
-2.29925e-08
1.15754e-06
-2.47693e-08
1.15879e-06
-2.60808e-08
1.16027e-06
-2.69152e-08
1.16199e-06
-2.7148e-08
1.16389e-06
-2.70163e-08
1.1659e-06
-2.67914e-08
1.16792e-06
-2.58657e-08
1.16991e-06
1.17131e-06
3.69409e-09
1.09295e-06
8.62163e-09
1.10357e-06
1.10323e-08
1.10773e-06
1.11118e-08
1.10768e-06
7.95492e-09
1.10795e-06
4.66336e-09
1.10735e-06
1.93405e-09
1.10642e-06
-1.50472e-10
1.10595e-06
-1.81825e-09
1.10602e-06
-3.41119e-09
1.10645e-06
-5.19006e-09
1.10701e-06
-7.27274e-09
1.10756e-06
-9.6282e-09
1.10806e-06
-1.21769e-08
1.10855e-06
-1.48282e-08
1.10909e-06
-1.74676e-08
1.1098e-06
-1.99162e-08
1.11073e-06
-2.19681e-08
1.11191e-06
-2.35097e-08
1.11334e-06
-2.45837e-08
1.115e-06
-2.52355e-08
1.11682e-06
-2.53542e-08
1.11873e-06
-2.51677e-08
1.12065e-06
-2.49847e-08
1.12236e-06
-2.42661e-08
1.12396e-06
1.12471e-06
1.37422e-08
1.08094e-06
1.44113e-08
1.09051e-06
1.33726e-08
1.08858e-06
1.02362e-08
1.08428e-06
6.21821e-09
1.08154e-06
3.17446e-09
1.07791e-06
1.03219e-09
1.07502e-06
-4.72087e-10
1.07297e-06
-1.75943e-09
1.07155e-06
-3.19311e-09
1.0705e-06
-4.95613e-09
1.06966e-06
-7.07505e-09
1.06894e-06
-9.431e-09
1.06836e-06
-1.19068e-08
1.06797e-06
-1.44001e-08
1.06784e-06
-1.6809e-08
1.06803e-06
-1.90063e-08
1.06857e-06
-2.0811e-08
1.06945e-06
-2.21224e-08
1.07063e-06
-2.30318e-08
1.07201e-06
-2.359e-08
1.0735e-06
-2.36827e-08
1.07501e-06
-2.36643e-08
1.0765e-06
-2.35929e-08
1.07777e-06
-2.31614e-08
1.07884e-06
1.079e-06
2.29023e-08
1.05834e-06
1.5284e-08
1.06179e-06
1.09083e-08
1.05451e-06
5.59498e-09
1.04896e-06
2.14011e-09
1.04402e-06
-6.76292e-11
1.03983e-06
-1.35062e-09
1.03668e-06
-2.20744e-09
1.03433e-06
-3.09984e-09
1.03244e-06
-4.31457e-09
1.03079e-06
-5.93075e-09
1.02929e-06
-7.90361e-09
1.02796e-06
-1.00648e-08
1.02688e-06
-1.22737e-08
1.02609e-06
-1.44567e-08
1.02563e-06
-1.65264e-08
1.02554e-06
-1.83885e-08
1.02583e-06
-1.99036e-08
1.02648e-06
-2.09998e-08
1.02744e-06
-2.18067e-08
1.02861e-06
-2.23329e-08
1.02986e-06
-2.24284e-08
1.03109e-06
-2.26016e-08
1.03227e-06
-2.27116e-08
1.03327e-06
-2.25884e-08
1.03408e-06
1.03392e-06
2.63326e-08
1.01525e-06
1.14028e-08
1.01122e-06
4.8583e-09
1.00207e-06
3.0458e-10
9.96781e-07
-2.24177e-09
9.92554e-07
-3.45349e-09
9.89677e-07
-3.9794e-09
9.87749e-07
-4.37731e-09
9.86316e-07
-5.02292e-09
9.85059e-07
-6.07056e-09
9.83838e-07
-7.50626e-09
9.82688e-07
-9.22186e-09
9.81653e-07
-1.11005e-08
9.80861e-07
-1.29843e-08
9.80367e-07
-1.47965e-08
9.80179e-07
-1.64899e-08
9.80322e-07
-1.79974e-08
9.80804e-07
-1.92111e-08
9.81602e-07
-2.00926e-08
9.82668e-07
-2.08087e-08
9.83924e-07
-2.13471e-08
9.85276e-07
-2.14757e-08
9.86611e-07
-2.17865e-08
9.87863e-07
-2.20741e-08
9.88982e-07
-2.22105e-08
9.89959e-07
9.9e-07
2.27442e-08
9.54119e-07
5.03804e-09
9.45079e-07
-1.03247e-09
9.37379e-07
-3.95212e-09
9.34097e-07
-5.23752e-09
9.32329e-07
-5.59957e-09
9.31771e-07
-5.68521e-09
9.31803e-07
-5.9245e-09
9.31975e-07
-6.52839e-09
9.32082e-07
-7.49252e-09
9.32097e-07
-8.79894e-09
9.32092e-07
-1.0267e-08
9.32122e-07
-1.18531e-08
9.32211e-07
-1.34405e-08
9.32567e-07
-1.49305e-08
9.33177e-07
-1.6296e-08
9.34031e-07
-1.74947e-08
9.35141e-07
-1.84446e-08
9.36491e-07
-1.91373e-08
9.38063e-07
-1.97535e-08
9.39665e-07
-2.02991e-08
9.41346e-07
-2.04957e-08
9.43053e-07
-2.08933e-08
9.44683e-07
-2.13068e-08
9.46229e-07
-2.1595e-08
9.47712e-07
9.48396e-07
1.44254e-08
8.87289e-07
-8.20398e-10
8.77409e-07
-4.6106e-09
8.73004e-07
-5.77141e-09
8.72637e-07
-5.95818e-09
8.73545e-07
-5.82485e-09
8.75185e-07
-5.82544e-09
8.77008e-07
-6.15457e-09
8.78728e-07
-6.85766e-09
8.80284e-07
-7.84907e-09
8.81569e-07
-9.08188e-09
8.82824e-07
-1.03989e-08
8.84093e-07
-1.17542e-08
8.85289e-07
-1.30959e-08
8.86653e-07
-1.43472e-08
8.88207e-07
-1.54715e-08
8.8993e-07
-1.6433e-08
8.91813e-07
-1.71727e-08
8.93856e-07
-1.77222e-08
8.96082e-07
-1.82833e-08
8.98264e-07
-1.88305e-08
9.00466e-07
-1.91119e-08
9.02681e-07
-1.95848e-08
9.04829e-07
-2.00563e-08
9.06928e-07
-2.04454e-08
9.09027e-07
9.10459e-07
5.28769e-09
8.29646e-07
-4.09847e-09
8.22334e-07
-5.27676e-09
8.21585e-07
-5.00513e-09
8.23662e-07
-4.54626e-09
8.26381e-07
-4.31084e-09
8.29302e-07
-4.47562e-09
8.3212e-07
-5.05246e-09
8.34843e-07
-5.89822e-09
8.37141e-07
-6.98782e-09
8.3923e-07
-8.2137e-09
8.41248e-07
-9.49776e-09
8.43276e-07
-1.07327e-08
8.45295e-07
-1.19032e-08
8.47358e-07
-1.29997e-08
8.49543e-07
-1.39821e-08
8.5187e-07
-1.48098e-08
8.54316e-07
-1.54485e-08
8.56843e-07
-1.59114e-08
8.59441e-07
-1.64307e-08
8.62058e-07
-1.69641e-08
8.64692e-07
-1.72978e-08
8.67325e-07
-1.78091e-08
8.69903e-07
-1.82637e-08
8.72459e-07
-1.87095e-08
8.75031e-07
8.77024e-07
-1.33967e-09
7.91066e-07
-4.34926e-09
7.87926e-07
-3.54081e-09
7.89965e-07
-2.4982e-09
7.93259e-07
-1.89451e-09
7.96502e-07
-1.8349e-09
7.99536e-07
-2.27445e-09
8.02359e-07
-3.07282e-09
8.0503e-07
-4.07838e-09
8.07172e-07
-5.29416e-09
8.0935e-07
-6.54234e-09
8.11476e-07
-7.84419e-09
8.13555e-07
-9.03984e-09
8.15693e-07
-1.00943e-08
8.1788e-07
-1.10541e-08
8.20135e-07
-1.19216e-08
8.22513e-07
-1.26704e-08
8.2502e-07
-1.3241e-08
8.27606e-07
-1.36807e-08
8.30233e-07
-1.41819e-08
8.32879e-07
-1.47124e-08
8.35547e-07