/*--------------------------------*- C++ -*----------------------------------*\
  =========                 |
  \\      /  F ield         | OpenFOAM: The Open Source CFD Toolbox
   \\    /   O peration     | Website:  https://openfoam.org
    \\  /    A nd           | Version:  7
     \\/     M anipulation  |
\*---------------------------------------------------------------------------*/
FoamFile
{
    version     2.0;
    format      ascii;
    class       surfaceScalarField;
    location    "0.01";
    object      phi.air;
}
// * * * * * * * * * * * * * * * * * * * * * * * * * * * * * * * * * * * * * //

dimensions      [0 3 -1 0 0 0 0];

internalField   nonuniform List<scalar> 
21139
(
-4.3361e-07
4.33569e-07
-9.98628e-07
4.07924e-07
-1.50208e-06
4.13188e-07
-1.96599e-06
4.77584e-07
-2.48926e-06
5.99721e-07
-3.22162e-06
7.55018e-07
-4.24842e-06
9.52371e-07
-5.54371e-06
1.29115e-06
-7.21382e-06
1.84825e-06
-1.00876e-05
2.73778e-06
-1.61419e-05
5.36371e-06
-1.27225e-05
1.03739e-05
-7.59172e-06
1.3334e-05
-5.35892e-06
-7.24858e-08
-3.75875e-06
1.43817e-06
-2.8917e-06
2.05812e-06
-2.267e-06
2.40096e-06
-1.7912e-06
2.57527e-06
-1.42391e-06
2.67299e-06
-1.12662e-06
2.73894e-06
-8.78968e-07
2.78539e-06
-6.67326e-07
2.81766e-06
-4.80339e-07
2.83899e-06
-3.11687e-07
2.85388e-06
-1.56398e-07
2.86473e-06
2.85624e-06
-4.60212e-07
7.71219e-07
-9.96679e-07
7.95251e-07
-1.44525e-06
8.49012e-07
-1.85591e-06
9.47167e-07
-2.34944e-06
1.0677e-06
-3.04413e-06
1.20722e-06
-3.94027e-06
1.46642e-06
-5.0331e-06
2.12253e-06
-6.39469e-06
3.31278e-06
-7.82845e-06
4.71486e-06
-8.89962e-06
7.07337e-06
-9.09334e-06
1.05216e-05
-2.82603e-06
7.31346e-06
-3.72588e-06
-1.33405e-09
-3.10238e-06
9.38134e-07
-2.53781e-06
1.51604e-06
-2.07954e-06
1.89156e-06
-1.68239e-06
2.14566e-06
-1.34969e-06
2.31699e-06
-1.07429e-06
2.4337e-06
-8.42535e-07
2.51655e-06
-6.42971e-07
2.57788e-06
-4.63383e-07
2.62412e-06
-2.98932e-07
2.65907e-06
-1.62343e-07
2.68622e-06
2.7024e-06
-4.39729e-07
1.12067e-06
-9.46394e-07
1.16814e-06
-1.35268e-06
1.24815e-06
-1.74294e-06
1.38094e-06
-2.21914e-06
1.55339e-06
-2.80077e-06
1.72704e-06
-3.32098e-06
1.87932e-06
-3.90721e-06
2.12141e-06
-5.06373e-06
2.87328e-06
-5.52589e-06
4.64988e-06
-4.67967e-06
6.49601e-06
-1.81332e-06
7.74963e-06
-2.4303e-06
8.45749e-06
-2.81029e-06
1.13162e-08
-2.54925e-06
6.58482e-07
-2.18394e-06
1.20087e-06
-1.8411e-06
1.59164e-06
-1.52181e-06
1.87688e-06
-1.24031e-06
2.08624e-06
-9.96583e-07
2.23947e-06
-7.84938e-07
2.35011e-06
-5.9952e-07
2.42828e-06
-4.3065e-07
2.48306e-06
-2.73462e-07
2.51708e-06
-1.47421e-07
2.54759e-06
2.56922e-06
-3.97762e-07
1.42889e-06
-8.7095e-07
1.47212e-06
-1.2268e-06
1.56157e-06
-1.57948e-06
1.70977e-06
-2.05466e-06
1.98866e-06
-2.65668e-06
2.45938e-06
-3.09133e-06
3.13103e-06
-3.19359e-06
3.68553e-06
-3.37625e-06
3.66162e-06
-3.77835e-06
4.0581e-06
-3.21453e-06
5.19769e-06
-2.05398e-06
6.08996e-06
-1.89565e-06
8.88364e-06
-2.18628e-06
1.22721e-08
-2.03248e-06
5.04146e-07
-1.81455e-06
9.43939e-07
-1.5712e-06
1.31189e-06
-1.32351e-06
1.61026e-06
-1.09499e-06
1.84309e-06
-8.91507e-07
2.02404e-06
-7.10571e-07
2.16423e-06
-5.47265e-07
2.27186e-06
-3.98179e-07
2.35594e-06
-2.44366e-07
2.40739e-06
-1.2668e-07
2.43639e-06
2.45835e-06
-3.60648e-07
1.70416e-06
-7.8664e-07
1.72213e-06
-1.08619e-06
1.78616e-06
-1.31485e-06
1.8348e-06
-1.60811e-06
1.91655e-06
-2.02001e-06
2.08149e-06
-2.56626e-06
2.51034e-06
-3.21788e-06
3.26855e-06
-3.00005e-06
3.96532e-06
-2.69816e-06
4.4043e-06
-2.42408e-06
5.06785e-06
-2.13939e-06
5.53131e-06
-1.49872e-06
8.57717e-06
-1.70871e-06
1.2098e-08
-1.61163e-06
4.53695e-07
-1.46675e-06
8.38213e-07
-1.28894e-06
1.1807e-06
-1.10299e-06
1.47155e-06
-9.23423e-07
1.70761e-06
-7.58538e-07
1.89471e-06
-6.08488e-07
2.04127e-06
-4.67519e-07
2.15313e-06
-3.49347e-07
2.23829e-06
-2.16846e-07
2.30372e-06
-1.05548e-07
2.34333e-06
2.36615e-06
-3.48214e-07
1.94939e-06
-7.26543e-07
2.00029e-06
-1.04001e-06
2.10521e-06
-1.23718e-06
2.24418e-06
-1.45147e-06
2.41682e-06
-1.61301e-06
2.59488e-06
-1.84696e-06
2.88372e-06
-2.55737e-06
3.42165e-06
-2.58303e-06
4.20361e-06
-2.06163e-06
4.62578e-06
-2.03885e-06
4.87325e-06
-2.01522e-06
5.15278e-06
-1.15828e-06
7.93744e-06
-1.28061e-06
1.10783e-08
-1.24324e-06
3.76504e-07
-1.14299e-06
7.34369e-07
-1.01363e-06
1.06361e-06
-8.79222e-07
1.34569e-06
-7.45897e-07
1.5805e-06
-6.19452e-07
1.7712e-06
-5.02331e-07
1.92613e-06
-3.86743e-07
2.05262e-06
-2.87306e-07
2.14738e-06
-1.79348e-07
2.2191e-06
-8.36789e-08
2.26453e-06
2.28573e-06
-3.05293e-07
2.07373e-06
-6.2777e-07
2.18005e-06
-9.08235e-07
2.28159e-06
-1.0734e-06
2.519e-06
-1.28267e-06
2.80622e-06
-1.33901e-06
3.0192e-06
-1.33622e-06
3.14577e-06
-1.81641e-06
3.34913e-06
-2.17233e-06
3.91733e-06
-1.81691e-06
4.43334e-06
-1.84232e-06
4.71476e-06
-1.92424e-06
5.04948e-06
-8.81755e-07
7.0767e-06
-9.26897e-07
9.95833e-09
-9.00434e-07
3.33703e-07
-8.31428e-07
6.65112e-07
-7.46264e-07
9.73934e-07
-6.56389e-07
1.24674e-06
-5.64875e-07
1.48266e-06
-4.72445e-07
1.67984e-06
-3.82395e-07
1.8404e-06
-2.96961e-07
1.97395e-06
-2.19354e-07
2.07909e-06
-1.36388e-07
2.15632e-06
-6.34389e-08
2.20329e-06
2.22361e-06
-2.10356e-07
2.12551e-06
-5.32253e-07
2.20094e-06
-6.83153e-07
2.21626e-06
-8.01032e-07
2.43148e-06
-1.08081e-06
2.74034e-06
-1.21893e-06
3.02503e-06
-1.14338e-06
3.19058e-06
-1.27846e-06
3.3265e-06
-1.66961e-06
3.75396e-06
-1.5478e-06
4.35712e-06
-1.60218e-06
4.85544e-06
-1.86816e-06
5.36883e-06
-6.2906e-07
5.98889e-06
-6.14655e-07
9.23966e-09
-5.83132e-07
3.32329e-07
-5.38758e-07
6.41045e-07
-4.87385e-07
9.26817e-07
-4.32452e-07
1.18587e-06
-3.778e-07
1.41897e-06
-3.20245e-07
1.62368e-06
-2.55935e-07
1.79306e-06
-1.97486e-07
1.92692e-06
-1.46332e-07
2.03185e-06
-9.20585e-08
2.11031e-06
-4.4101e-08
2.15824e-06
2.18198e-06
-1.44897e-07
2.28726e-06
-5.1849e-07
2.27651e-06
-4.79035e-07
2.26327e-06
-5.08225e-07
2.42761e-06
-8.10988e-07
2.69002e-06
-1.06164e-06
2.98965e-06
-1.01432e-06
3.22949e-06
-8.74194e-07
3.43378e-06
-1.09192e-06
3.80426e-06
-1.07981e-06
4.39784e-06
-1.16375e-06
5.09509e-06
-1.89392e-06
6.20909e-06
-3.43311e-07
4.47217e-06
-3.03922e-07
1.44449e-08
-2.87737e-07
3.29976e-07
-2.67955e-07
6.31264e-07
-2.42199e-07
9.14545e-07
-2.12185e-07
1.17146e-06
-1.84616e-07
1.39712e-06
-1.60591e-07
1.59368e-06
-1.29961e-07
1.76488e-06
-9.88665e-08
1.9037e-06
-7.26739e-08
2.00945e-06
-4.71852e-08
2.08717e-06
-2.17086e-08
2.13731e-06
2.16103e-06
-1.61388e-07
2.45961e-06
-5.31875e-07
2.39335e-06
-3.23039e-07
2.43527e-06
-2.59371e-07
2.55215e-06
-5.27071e-07
2.73605e-06
-8.34022e-07
2.99508e-06
-8.20524e-07
3.25229e-06
-5.23864e-07
3.49007e-06
-5.27879e-07
3.78538e-06
-4.21023e-07
4.23054e-06
-8.99794e-08
4.83149e-06
4.58092e-07
5.74669e-06
8.54137e-07
3.95023e-06
8.84466e-09
8.16845e-07
-4.72403e-11
3.19079e-07
-4.5797e-10
5.70416e-07
-7.03055e-10
8.18252e-07
-8.76405e-10
1.04339e-06
-1.1041e-09
1.23411e-06
-1.14814e-09
1.39725e-06
-1.0286e-09
1.55099e-06
-8.73917e-10
1.67892e-06
-6.88095e-10
1.77361e-06
-5.24527e-10
1.84297e-06
9.31863e-10
1.89463e-06
1.91223e-06
-2.3086e-07
2.46958e-06
-4.9305e-07
2.43165e-06
-2.12015e-07
2.5628e-06
-8.49093e-08
2.64657e-06
-2.81562e-07
2.73911e-06
-5.89878e-07
2.91834e-06
-5.94923e-07
3.14776e-06
-2.44497e-07
3.37523e-06
-1.04568e-07
3.5817e-06
1.4935e-07
3.82577e-06
8.12261e-07
4.11881e-06
2.35014e-06
4.27723e-06
2.40077e-06
3.57798e-06
1.00646e-06
2.09885e-06
-2.3755e-07
1.58281e-06
-1.13779e-06
1.59259e-06
-1.628e-06
1.41561e-06
-1.78117e-06
1.30639e-06
-1.72086e-06
1.28584e-06
-1.54919e-06
1.33749e-06
-1.31368e-06
1.42199e-06
-1.05777e-06
1.52459e-06
-8.06281e-07
1.62182e-06
-5.64773e-07
1.699e-06
-3.21999e-07
1.74805e-06
1.68646e-06
-2.73705e-07
2.3327e-06
-3.69605e-07
2.37755e-06
-1.3244e-07
2.55404e-06
2.85837e-09
2.61544e-06
-1.1169e-07
2.63766e-06
-3.72079e-07
2.73356e-06
-3.79101e-07
2.9141e-06
-4.91287e-08
3.11301e-06
1.27661e-07
3.26512e-06
4.28021e-07
3.4104e-06
9.63777e-07
3.50131e-06
1.74139e-06
3.40946e-06
2.25456e-06
2.95392e-06
1.90857e-06
2.18803e-06
1.42812e-06
1.69679e-06
1.16304e-06
1.49856e-06
8.89144e-07
1.35923e-06
6.22932e-07
1.27696e-06
3.86266e-07
1.24912e-06
1.95178e-07
1.26735e-06
6.22239e-08
1.31723e-06
-1.81933e-08
1.38798e-06
-5.41281e-08
1.46025e-06
-3.90472e-08
1.52074e-06
-2.63926e-08
1.63678e-06
1.6283e-06
-2.39432e-07
2.19485e-06
-2.03128e-07
2.31243e-06
-7.4134e-08
2.46694e-06
2.3889e-08
2.50646e-06
-2.08257e-08
2.4939e-06
-2.00665e-07
2.53292e-06
-1.90427e-07
2.65971e-06
9.46123e-08
2.8065e-06
2.65333e-07
2.90183e-06
5.15463e-07
3.02205e-06
8.7545e-07
3.06587e-06
1.31292e-06
3.01117e-06
1.55697e-06
2.75094e-06
1.4611e-06
2.3879e-06
1.25924e-06
2.09186e-06
1.05979e-06
1.88596e-06
8.42566e-07
1.74261e-06
6.2512e-07
1.64736e-06
4.28066e-07
1.5954e-06
2.64043e-07
1.57846e-06
1.46354e-07
1.58923e-06
6.29686e-08
1.61473e-06
1.35474e-08
1.64151e-06
8.03792e-08
1.64589e-06
-2.35001e-08
1.57797e-06
1.57905e-06
-1.38019e-07
2.15933e-06
-5.74838e-08
2.29211e-06
-3.66255e-08
2.38482e-06
1.19355e-08
2.40168e-06
1.60902e-08
2.38398e-06
-8.02873e-08
2.40623e-06
-5.10656e-08
2.50714e-06
1.84781e-07
2.62376e-06
3.78642e-07
2.68255e-06
5.57557e-07
2.7655e-06
8.23193e-07
2.78745e-06
1.06551e-06
2.70622e-06
1.232e-06
2.50552e-06
1.18687e-06
2.23682e-06
1.07202e-06
2.00759e-06
9.27141e-07
1.82667e-06
7.57135e-07
1.68879e-06
5.79611e-07
1.58787e-06
4.15766e-07
1.52119e-06
2.77701e-07
1.49006e-06
1.73384e-07
1.48421e-06
9.05654e-08
1.47747e-06
1.93001e-08
1.46485e-06
1.82829e-08
1.5154e-06
-1.52875e-08
1.53781e-06
1.54471e-06
-2.03905e-08
2.2055e-06
2.95117e-08
2.29897e-06
-2.06342e-08
2.32883e-06
-4.89796e-09
2.32694e-06
3.70367e-08
2.31303e-06
1.54362e-08
2.33265e-06
5.97056e-08
2.41545e-06
2.40568e-07
2.50275e-06
4.56814e-07
2.52206e-06
5.78518e-07
2.5066e-06
7.46154e-07
2.48017e-06
8.75508e-07
2.39322e-06
9.8362e-07
2.2515e-06
9.7519e-07
2.06076e-06
9.05711e-07
1.87785e-06
7.97761e-07
1.71661e-06
6.61911e-07
1.58109e-06
5.18714e-07
1.47576e-06
3.86758e-07
1.40538e-06
2.73109e-07
1.37807e-06
1.69363e-07
1.39949e-06
8.03527e-08
1.44953e-06
6.8531e-08
1.48472e-06
4.11791e-08
1.50127e-06
-2.8102e-09
1.50863e-06
1.50648e-06
6.1784e-08
2.24489e-06
5.68351e-08
2.2815e-06
-2.24225e-08
2.27616e-06
-1.81313e-08
2.26997e-06
5.5494e-08
2.26188e-06
9.39096e-08
2.27576e-06
1.42621e-07
2.34157e-06
2.58952e-07
2.422e-06
4.41841e-07
2.46796e-06
5.53313e-07
2.45871e-06
6.6334e-07
2.43444e-06
7.40806e-07
2.3723e-06
8.02549e-07
2.27663e-06
8.01573e-07
2.14413e-06
7.52537e-07
2.00178e-06
6.68863e-07
1.86507e-06
5.60681e-07
1.74272e-06
4.51085e-07
1.63897e-06
3.59641e-07
1.5579e-06
2.89856e-07
1.49897e-06
2.15144e-07
1.46777e-06
1.13567e-07
1.46369e-06
8.43764e-08
1.47778e-06
4.90643e-08
1.47645e-06
8.24032e-10
1.47238e-06
1.4672e-06
9.00942e-08
2.20775e-06
5.07037e-08
2.20498e-06
-2.82696e-08
2.19811e-06
-2.57956e-08
2.20876e-06
6.85397e-08
2.2188e-06
1.56232e-07
2.22903e-06
2.18982e-07
2.26592e-06
3.02687e-07
2.31625e-06
4.33013e-07
2.35115e-06
5.30359e-07
2.34005e-06
6.04462e-07
2.30282e-06
6.50157e-07
2.23741e-06
6.7703e-07
2.14819e-06
6.66735e-07
2.03601e-06
6.23018e-07
1.91666e-06
5.53178e-07
1.80414e-06
4.64355e-07
1.70725e-06
3.74765e-07
1.62756e-06
3.06093e-07
1.56285e-06
2.60569e-07
1.50884e-06
2.09923e-07
1.46737e-06
1.26599e-07
1.4432e-06
8.31145e-08
1.44219e-06
4.60349e-08
1.43963e-06
1.3834e-09
1.43679e-06
1.43347e-06
8.11814e-08
2.08771e-06
4.31453e-08
2.07297e-06
-1.81396e-08
2.08011e-06
-1.62218e-08
2.11464e-06
7.81686e-08
2.15051e-06
1.91101e-07
2.16706e-06
2.66705e-07
2.17765e-06
3.35967e-07
2.18874e-06
4.22296e-07
2.18723e-06
4.94793e-07
2.1534e-06
5.42488e-07
2.09302e-06
5.65608e-07
2.01233e-06
5.70749e-07
1.9178e-06
5.53661e-07
1.81387e-06
5.16419e-07
1.71148e-06
4.61628e-07
1.62214e-06
3.90974e-07
1.55394e-06
3.15673e-07
1.50846e-06
2.56829e-07
1.47873e-06
2.23133e-07
1.45345e-06
1.87438e-07
1.42874e-06
1.25629e-07
1.41147e-06
8.06871e-08
1.40969e-06
4.41176e-08
1.41007e-06
3.4542e-09
1.40934e-06
1.40612e-06
6.11453e-08
1.93296e-06
4.89904e-08
1.92353e-06
1.46417e-08
1.93921e-06
1.78628e-08
1.98713e-06
9.38785e-08
2.04379e-06
2.01059e-07
2.07713e-06
2.77197e-07
2.0838e-06
3.34748e-07
2.07655e-06
3.90327e-07
2.05396e-06
4.37435e-07
2.00869e-06
4.65929e-07
1.94275e-06
4.75926e-07
1.8633e-06
4.72148e-07
1.77718e-06
4.56522e-07
1.68894e-06
4.31653e-07
1.60451e-06
3.96915e-07
1.53095e-06
3.4796e-07
1.47499e-06
2.87644e-07
1.44075e-06
2.32822e-07
1.42523e-06
1.99629e-07
1.41703e-06
1.71062e-07
1.40535e-06
1.23934e-07
1.39368e-06
8.10636e-08
1.39002e-06
4.41718e-08
1.38878e-06
5.41656e-09
1.38638e-06
1.38088e-06
4.64743e-08
1.80477e-06
6.30188e-08
1.80299e-06
6.01153e-08
1.81382e-06
7.16583e-08
1.85478e-06
1.25543e-07
1.91122e-06
2.07405e-07
1.95231e-06
2.70365e-07
1.96438e-06
3.1339e-07
1.95609e-06
3.47414e-07
1.93158e-06
3.74915e-07
1.89103e-06
3.90605e-07
1.83694e-06
3.94258e-07
1.77487e-06
3.88458e-07
1.70991e-06
3.76439e-07
1.64524e-06
3.61863e-07
1.58276e-06
3.43797e-07
1.5246e-06
3.15449e-07
1.47458e-06
2.72982e-07
1.43778e-06
2.25127e-07
1.41631e-06
1.88554e-07
1.40504e-06
1.59988e-07
1.39344e-06
1.20455e-07
1.38019e-06
7.98962e-08
1.3714e-06
4.26267e-08
1.36565e-06
5.03291e-09
1.36031e-06
1.35279e-06
3.9358e-08
1.73565e-06
7.25192e-08
1.73751e-06
9.89759e-08
1.73869e-06
1.25207e-07
1.7607e-06
1.64539e-07
1.79747e-06
2.18879e-07
1.82794e-06
2.62551e-07
1.83744e-06
2.90212e-07
1.82882e-06
3.08998e-07
1.80701e-06
3.23667e-07
1.77457e-06
3.31777e-07
1.73429e-06
3.32665e-07
1.69029e-06
3.27149e-07
1.64562e-06
3.17206e-07
1.60192e-06
3.0671e-07
1.55919e-06
2.96358e-07
1.51638e-06
2.80532e-07
1.47407e-06
2.52597e-07
1.43607e-06
2.14412e-07
1.40697e-06
1.77554e-07
1.38727e-06
1.47412e-07
1.37123e-06
1.12113e-07
1.35535e-06
7.44551e-08
1.34293e-06
3.82581e-08
1.33423e-06
2.56028e-09
1.32743e-06
1.31926e-06
3.59324e-08
1.71313e-06
7.29273e-08
1.71662e-06
1.19847e-07
1.71276e-06
1.60093e-07
1.71726e-06
1.93446e-07
1.72866e-06
2.27897e-07
1.73747e-06
2.54409e-07
1.73401e-06
2.6956e-07
1.71839e-06
2.78254e-07
1.69458e-06
2.85476e-07
1.66505e-06
2.90053e-07
1.63138e-06
2.903e-07
1.59623e-06
2.85707e-07
1.56178e-06
2.76692e-07
1.52916e-06
2.66124e-07
1.49823e-06
2.56233e-07
1.46715e-06
2.44496e-07
1.43438e-06
2.24991e-07
1.40127e-06
1.95711e-07
1.37197e-06
1.62341e-07
1.34928e-06
1.3234e-07
1.33174e-06
1.00335e-07
1.31628e-06
6.62061e-08
1.30394e-06
3.2486e-08
1.29524e-06
-6.97006e-10
1.28891e-06
1.28088e-06
3.42493e-08
1.70207e-06
6.85933e-08
1.70786e-06
1.24108e-07
1.70549e-06
1.70901e-07
1.70018e-06
2.01801e-07
1.69203e-06
2.24613e-07
1.68013e-06
2.39603e-07
1.66117e-06
2.46969e-07
1.63538e-06
2.50248e-07
1.60568e-06
2.53526e-07
1.57423e-06
2.56717e-07
1.54143e-06
2.57628e-07
1.50817e-06
2.54775e-07
1.47594e-06
2.47341e-07
1.44605e-06
2.36648e-07
1.41903e-06
2.25147e-07
1.39386e-06
2.13096e-07
1.36865e-06
1.97197e-07
1.34272e-06
1.74184e-07
1.31831e-06
1.45707e-07
1.29798e-06
1.17681e-07
1.28225e-06
8.86239e-08
1.2694e-06
5.79711e-08
1.2593e-06
2.71276e-08
1.25222e-06
-4.00021e-09
1.24704e-06
1.23969e-06
3.49418e-08
1.67703e-06
6.56694e-08
1.68554e-06
1.19063e-07
1.68724e-06
1.63162e-07
1.67844e-06
1.90512e-07
1.66007e-06
2.06626e-07
1.63543e-06
2.15137e-07
1.60585e-06
2.18782e-07
1.57298e-06
2.20405e-07
1.53879e-06
2.22412e-07
1.50477e-06
2.25161e-07
1.47117e-06
2.27055e-07
1.43791e-06
2.26415e-07
1.40554e-06
2.21692e-07
1.37538e-06
2.12773e-07
1.34829e-06
2.01227e-07
1.32433e-06
1.88509e-07
1.30257e-06
1.74046e-07
1.28157e-06
1.54895e-07
1.26176e-06
1.30792e-07
1.24474e-06
1.05487e-07
1.2314e-06
7.90459e-08
1.22083e-06
5.12657e-08
1.21263e-06
2.28349e-08
1.20673e-06
-6.82584e-09
1.20194e-06
1.19551e-06
3.84265e-08
1.6302e-06
6.66118e-08
1.64041e-06
1.10689e-07
1.64371e-06
1.45725e-07
1.6334e-06
1.67131e-07
1.61151e-06
1.78558e-07
1.58241e-06
1.83952e-07
1.54925e-06
1.86342e-07
1.51466e-06
1.88127e-07
1.48024e-06
1.90537e-07
1.44657e-06
1.93611e-07
1.41369e-06
1.96363e-07
1.38139e-06
1.9751e-07
1.34978e-06
1.95722e-07
1.31978e-06
1.90034e-07
1.29229e-06
1.80575e-07
1.26795e-06
1.68597e-07
1.24686e-06
1.55247e-07
1.22789e-06
1.3875e-07
1.21039e-06
1.18141e-07
1.19511e-06
9.54636e-08
1.18276e-06
7.1274e-08
1.17288e-06
4.56788e-08
1.16512e-06
1.88958e-08
1.15923e-06
-8.97063e-09
1.15413e-06
1.14765e-06
4.37763e-08
1.56443e-06
6.90483e-08
1.57434e-06
1.00877e-07
1.57457e-06
1.24952e-07
1.56187e-06
1.39518e-07
1.53913e-06
1.47093e-07
1.51042e-06
1.51135e-07
1.47895e-06
1.53678e-07
1.44693e-06
1.56171e-07
1.41565e-06
1.59326e-07
1.38523e-06
1.63037e-07
1.35543e-06
1.66624e-07
1.32601e-06
1.69106e-07
1.29703e-06
1.69526e-07
1.26896e-06
1.66927e-07
1.24238e-06
1.60541e-07
1.2181e-06
1.50589e-07
1.19676e-06
1.38626e-07
1.17814e-06
1.24265e-07
1.16146e-06
1.06419e-07
1.14671e-06
8.60874e-08
1.13425e-06
6.39e-08
1.12397e-06
4.00952e-08
1.11564e-06
1.46304e-08
1.1091e-06
-1.13379e-08
1.10399e-06
1.09713e-06
4.91432e-08
1.48622e-06
6.85999e-08
1.49346e-06
8.8806e-08
1.48766e-06
1.03372e-07
1.47177e-06
1.12275e-07
1.44889e-06
1.17234e-07
1.42222e-06
1.20753e-07
1.39443e-06
1.2399e-07
1.36687e-06
1.27301e-07
1.34011e-06
1.3104e-07
1.31415e-06
1.35175e-07
1.28864e-06
1.39219e-07
1.26338e-06
1.42479e-07
1.23833e-06
1.44284e-07
1.21363e-06
1.43866e-07
1.18956e-06
1.40272e-07
1.16667e-06
1.32907e-07
1.14557e-06
1.22798e-07
1.12673e-06
1.10258e-07
1.10989e-06
9.45684e-08
1.09486e-06
7.63182e-08
1.08187e-06
5.59873e-08
1.07099e-06
3.3879e-08
1.06209e-06
1.03204e-08
1.05504e-06
-1.42345e-08
1.04999e-06
1.04397e-06
5.23017e-08
1.4006e-06
6.25155e-08
1.4034e-06
7.37212e-08
1.39205e-06
8.16608e-08
1.37386e-06
8.69746e-08
1.35167e-06
9.08728e-08
1.3277e-06
9.46052e-08
1.30369e-06
9.86029e-08
1.28039e-06
1.02657e-07
1.25789e-06
1.06831e-07
1.23607e-06
1.11193e-07
1.21466e-06
1.15447e-07
1.19345e-06
1.19037e-07
1.17239e-06
1.21436e-07
1.15141e-06
1.22134e-07
1.13054e-06
1.20241e-07
1.11006e-06
1.15023e-07
1.0904e-06
1.06816e-07
1.0721e-06
9.5977e-08
1.0553e-06
8.22391e-08
1.04008e-06
6.59867e-08
1.02675e-06
4.7536e-08
1.01548e-06
2.71882e-08
1.00639e-06
6.02954e-09
9.99619e-07
-1.65451e-08
9.94636e-07
9.89823e-07
5.15722e-08
1.30929e-06
5.12789e-08
1.30747e-06
5.64637e-08
1.29356e-06
6.06203e-08
1.27542e-06
6.42365e-08
1.25541e-06
6.81013e-08
1.23486e-06
7.25017e-08
1.21461e-06
7.72597e-08
1.19496e-06
8.19528e-08
1.17591e-06
8.65143e-08
1.15738e-06
9.1073e-08
1.13922e-06
9.54559e-08
1.12125e-06
9.91326e-08
1.10335e-06
1.01632e-07
1.08547e-06
1.02695e-07
1.06747e-06
1.01585e-07
1.04938e-06
9.76585e-08
1.03156e-06
9.08742e-08
1.01449e-06
8.15326e-08
9.98557e-07
6.95988e-08
9.83986e-07
5.53e-08
9.71123e-07
3.89129e-08
9.60217e-07
2.07672e-08
9.51497e-07
1.76135e-09
9.4553e-07
-1.79263e-08
9.41487e-07
9.37696e-07
4.67734e-08
1.21301e-06
3.7695e-08
1.20805e-06
3.92658e-08
1.1949e-06
4.16403e-08
1.17938e-06
4.47513e-08
1.1631e-06
4.89e-08
1.14674e-06
5.38664e-08
1.13048e-06
5.91853e-08
1.11438e-06
6.4377e-08
1.09845e-06
6.92887e-08
1.08278e-06
7.4023e-08
1.06732e-06
7.84842e-08
1.05191e-06
8.21693e-08
1.03642e-06
8.45599e-08
1.02079e-06
8.55267e-08
1.00499e-06
8.46818e-08
9.88944e-07
8.14746e-08
9.72891e-07
7.57602e-08
9.57265e-07
6.77139e-08
9.42523e-07
5.7398e-08
9.29014e-07
4.49561e-08
9.17139e-07
3.06445e-08
9.07251e-07
1.51114e-08
8.99545e-07
-1.65442e-09
8.94407e-07
-1.85459e-08
8.91618e-07
8.88992e-07
3.93022e-08
1.11432e-06
2.48944e-08
1.10839e-06
2.45433e-08
1.09821e-06
2.62084e-08
1.08686e-06
2.92288e-08
1.07523e-06
3.34856e-08
1.06344e-06
3.85906e-08
1.05138e-06
4.4081e-08
1.03898e-06
4.951e-08
1.02631e-06
5.46283e-08
1.01354e-06
5.94159e-08
1.00071e-06
6.37916e-08
9.87722e-07
6.73509e-08
9.74408e-07
6.9576e-08
9.6072e-07
7.0308e-08
9.46729e-07
6.94589e-08
9.32486e-07
6.66575e-08
9.18168e-07
6.17812e-08
9.04135e-07
5.49046e-08
8.90809e-07
4.61385e-08
8.78586e-07
3.55819e-08
8.67868e-07
2.33406e-08
8.59075e-07
1.02433e-08
8.52535e-07
-3.91749e-09
8.48264e-07
-1.82682e-08
8.46317e-07
8.44634e-07
3.12097e-08
1.01786e-06
1.49438e-08
1.01272e-06
1.37836e-08
1.00623e-06
1.51765e-08
9.99318e-07
1.80435e-08
9.92241e-07
2.20433e-08
9.84821e-07
2.68256e-08
9.76835e-07
3.2067e-08
9.68183e-07
3.73943e-08
9.58915e-07
4.24662e-08
9.49166e-07
4.70999e-08
9.39018e-07
5.1167e-08
9.28421e-07
5.43731e-08
9.1727e-07
5.63113e-08
9.05541e-07
5.68033e-08
8.93349e-07
5.58841e-08
8.80854e-07
5.33535e-08
8.68253e-07
4.91473e-08
8.55888e-07
4.33168e-08
8.44143e-07
3.59775e-08
8.33399e-07
2.72474e-08
8.24012e-07
1.71441e-08
8.16331e-07
6.19881e-09
8.10783e-07
-5.41427e-09
8.07386e-07
-1.72952e-08
8.06025e-07
8.04849e-07
2.41251e-08
9.28446e-07
8.51618e-09
9.24879e-07
7.22794e-09
9.21672e-07
8.46221e-09
9.18463e-07
1.10012e-08
9.15108e-07
1.44652e-08
9.11333e-07
1.86153e-08
9.06921e-07
2.32733e-08
9.01744e-07
2.81459e-08
8.95759e-07
3.2841e-08
8.88996e-07
3.70505e-08
8.81497e-07
4.05931e-08
8.7325e-07
4.32526e-08
8.64224e-07
4.47526e-08
8.54463e-07
4.4957e-08
8.4413e-07
4.3938e-08
8.33458e-07
4.16303e-08
8.22682e-07
3.80134e-08
8.12119e-07
3.31325e-08
8.02108e-07
2.70788e-08
7.92981e-07
1.9968e-08
7.85056e-07
1.18871e-08
7.78598e-07
2.98311e-09
7.73928e-07
-6.38487e-09
7.71185e-07
-1.60259e-08
7.70143e-07
7.69078e-07
1.87789e-08
8.49146e-07
5.23667e-09
8.47156e-07
4.17872e-09
8.46273e-07
5.27606e-09
8.45579e-07
7.41613e-09
8.44798e-07
1.02753e-08
8.43677e-07
1.36996e-08
8.4203e-07
1.75925e-08
8.39698e-07
2.17284e-08
8.36533e-07
2.57258e-08
8.32438e-07
2.92281e-08
8.27387e-07
3.20334e-08
8.21389e-07
3.39963e-08
8.14475e-07
3.49545e-08
8.06743e-07
3.48377e-08
7.98385e-07
3.37215e-08
7.89656e-07
3.16158e-08
7.80811e-07
2.8523e-08
7.72134e-07
2.44806e-08
7.6392e-07
1.9567e-08
7.56437e-07
1.38475e-08
7.49941e-07
7.46197e-09
7.44654e-07
3.87058e-10
7.40773e-07
-7.08269e-09
7.38471e-07
-1.48237e-08
7.3752e-07
7.36323e-07
1.5151e-08
7.80928e-07
4.19738e-09
7.8014e-07
3.51452e-09
7.80542e-07
4.53136e-09
7.81223e-07
6.34814e-09
7.81935e-07
8.70886e-09
7.82464e-07
1.14831e-08
7.82639e-07
1.4586e-08
7.82275e-07
1.78407e-08
7.81162e-07
2.09325e-08
7.79124e-07
2.35379e-08
7.76084e-07
2.54747e-08
7.72057e-07
2.66623e-08
7.6711e-07
2.70282e-08
7.61369e-07
2.65609e-08
7.55025e-07
2.53337e-08
7.48307e-07
2.33889e-08
7.41442e-07
2.07354e-08
7.34668e-07
1.73863e-08
7.28228e-07
1.34089e-08
7.22344e-07
8.83655e-09
7.17203e-07
3.78482e-09
7.12988e-07
-1.79224e-09
7.09834e-07
-7.72166e-09
7.07889e-07
-1.39095e-08
7.06953e-07
7.05546e-07
1.28599e-08
7.23212e-07
4.41305e-09
7.23185e-07
4.15563e-09
7.24077e-07
5.20317e-09
7.25319e-07
6.84645e-09
7.26718e-07
8.87197e-09
7.28069e-07
1.11345e-08
7.29192e-07
1.35265e-08
7.29891e-07
1.59052e-08
7.29958e-07
1.80471e-08
7.29214e-07
1.97164e-08
7.27573e-07
2.0782e-08
7.25056e-07
2.12169e-08
7.21745e-07
2.1011e-08
7.17766e-07
2.01902e-08
7.13283e-07
1.88237e-08
7.08474e-07
1.69653e-08
7.03512e-07
1.46292e-08
6.98567e-07
1.18069e-08
6.93818e-07
8.53526e-09
6.89443e-07
4.841e-09
6.85583e-07
7.95943e-10
6.82373e-07
-3.63378e-09
6.79915e-07
-8.37392e-09
6.78324e-07
-1.33493e-08
6.77431e-07
6.75863e-07
1.14637e-08
6.74604e-07
5.12712e-09
6.7499e-07
5.33039e-09
6.75927e-07
6.52794e-09
6.77268e-07
8.12644e-09
6.78836e-07
9.93485e-09
6.80412e-07
1.17967e-08
6.81803e-07
1.35884e-08
6.82834e-07
1.51979e-08
6.83344e-07
1.64901e-08
6.83202e-07
1.73277e-08
6.82355e-07
1.76415e-08
6.80833e-07
1.7443e-08
6.78721e-07
1.67586e-08
6.76126e-07
1.56298e-08
6.73172e-07
1.41177e-08
6.69985e-07
1.22758e-08
6.66675e-07
1.01262e-08
6.63347e-07
7.65833e-09
6.6011e-07
4.87554e-09
6.57088e-07
1.79787e-09
6.54386e-07
-1.5338e-09
6.521e-07
-5.1409e-09
6.50305e-07
-9.01016e-09
6.49081e-07
-1.30923e-08
6.4829e-07
6.46663e-07
1.06088e-08
6.33431e-07
5.91255e-09
6.34024e-07
6.60078e-09
6.34843e-07
8.01431e-09
6.36051e-07
9.62101e-09
6.37459e-07
1.12544e-08
6.38848e-07
1.27755e-08
6.40044e-07
1.40716e-08
6.40916e-07
1.5064e-08
6.4137e-07
1.56873e-08
6.41346e-07
1.58844e-08
6.40833e-07
1.56382e-08
6.39872e-07
1.49822e-08
6.38538e-07
1.39579e-08
6.36914e-07
1.26076e-08
6.35083e-07
1.09792e-08
6.33122e-07
9.11957e-09
6.31093e-07
7.05686e-09
6.29046e-07
4.79273e-09
6.27035e-07
2.31387e-09
6.25128e-07
-3.69676e-10
6.23395e-07
-3.23514e-09
6.21898e-07
-6.30104e-09
6.20692e-07
-9.57582e-09
6.19829e-07
-1.30365e-08
6.19191e-07
6.17618e-07
1.00764e-08
5.98043e-07
6.61078e-09
5.98766e-07
7.74597e-09
5.9944e-07
9.35008e-09
6.00379e-07
1.094e-08
6.01402e-07
1.23896e-08
6.02333e-07
1.36039e-08
6.03051e-07
1.45037e-08
6.0349e-07
1.5043e-08
6.03619e-07
1.52024e-08
6.0344e-07
1.49748e-08
6.02975e-07
1.43743e-08
6.02269e-07
1.34426e-08
6.01382e-07
1.22224e-08
6.00366e-07
1.07489e-08
5.9927e-07
9.05557e-09
5.98134e-07
7.17903e-09
5.96987e-07
5.15027e-09
5.95843e-07
2.98507e-09
5.9472e-07
6.70601e-10
5.93643e-07
-1.78951e-09
5.92649e-07
-4.37849e-09
5.91774e-07
-7.11859e-09
5.91053e-07
-1.00209e-08
5.90523e-07
-1.30721e-08
5.90064e-07
5.88635e-07
9.77331e-09
5.66948e-07
7.19241e-09
5.67795e-07
8.63665e-09
5.68304e-07
1.03213e-08
5.68868e-07
1.18249e-08
5.69362e-07
1.30732e-08
5.69692e-07
1.40218e-08
5.69812e-07
1.46294e-08
5.69717e-07
1.48754e-08
5.69427e-07
1.47634e-08
5.68978e-07
1.43081e-08
5.68409e-07
1.35344e-08
5.67765e-07
1.24808e-08
5.67083e-07
1.11847e-08
5.66394e-07
9.67341e-09
5.65718e-07
7.96837e-09
5.65068e-07
6.09558e-09
5.64453e-07
4.0857e-09
5.63871e-07
1.96468e-09
5.63319e-07
-2.71225e-10
5.62796e-07
-2.61948e-09
5.62316e-07
-5.06162e-09
5.61891e-07
-7.62124e-09
5.61542e-07
-1.03033e-08
5.61292e-07
-1.31051e-08
5.61019e-07
5.5979e-07
9.67481e-09
5.38862e-07
7.63381e-09
5.3981e-07
9.17243e-09
5.40091e-07
1.07912e-08
5.40208e-07
1.21397e-08
5.40128e-07
1.31897e-08
5.39847e-07
1.3934e-08
5.39391e-07
1.43571e-08
5.38797e-07
1.44518e-08
5.3811e-07
1.4227e-08
5.3738e-07
1.36995e-08
5.36649e-07
1.28908e-08
5.35953e-07
1.18294e-08
5.35316e-07
1.05449e-08
5.3475e-07
9.05907e-09
5.34258e-07
7.38655e-09
5.33839e-07
5.54513e-09
5.3349e-07
3.5628e-09
5.33203e-07
1.4701e-09
5.32967e-07
-7.26452e-10
5.32768e-07
-3.02142e-09
5.32604e-07
-5.3924e-09
5.32475e-07
-7.85897e-09
5.32385e-07
-1.04171e-08
5.32345e-07
-1.30758e-08
5.32245e-07
5.31228e-07
9.74463e-09
5.12684e-07
7.87118e-09
5.13641e-07
9.28458e-09
5.13622e-07
1.07165e-08
5.13289e-07
1.18758e-08
5.12702e-07
1.27592e-08
5.11925e-07
1.33726e-08
5.11025e-07
1.37088e-08
5.10056e-07
1.3762e-08
5.09071e-07
1.35367e-08
5.08113e-07
1.30418e-08
5.0722e-07
1.2289e-08
5.06419e-07
1.1295e-08
5.05727e-07
1.00805e-08
5.05148e-07
8.66387e-09
5.0468e-07
7.05742e-09
5.04316e-07
5.27446e-09
5.04047e-07
3.33947e-09
5.03864e-07
1.28302e-09
5.03755e-07
-8.81353e-10
5.03704e-07
-3.14351e-09
5.03699e-07
-5.47783e-09
5.03731e-07
-7.89646e-09
5.03794e-07
-1.0389e-08
5.03892e-07
-1.29634e-08
5.03927e-07
5.03105e-07
9.88424e-09
4.87484e-07
7.83241e-09
4.88308e-07
8.96983e-09
4.87969e-07
1.01603e-08
4.87275e-07
1.11412e-08
4.86342e-07
1.19073e-08
4.85265e-07
1.24564e-08
4.84113e-07
1.27764e-08
4.82939e-07
1.28563e-08
4.81784e-07
1.26924e-08
4.80683e-07
1.22847e-08
4.79665e-07
1.16347e-08
4.78751e-07
1.07485e-08
4.77958e-07
9.63859e-09
4.7729e-07
8.31979e-09
4.76748e-07
6.80405e-09
4.76326e-07
5.10289e-09
4.76016e-07
3.23744e-09
4.75812e-07
1.23567e-09
4.75702e-07
-8.85845e-10
4.75671e-07
-3.11268e-09
4.75704e-07
-5.41734e-09
4.7579e-07
-7.80314e-09
4.75917e-07
-1.02543e-08
4.76083e-07
-1.27733e-08
4.76203e-07
4.75541e-07
9.9504e-09
4.62545e-07
7.4964e-09
4.63113e-07
8.31229e-09
4.62521e-07
9.27741e-09
4.61628e-07
1.01211e-08
4.6056e-07
1.08167e-08
4.59396e-07
1.13445e-08
4.58187e-07
1.16827e-08
4.56968e-07
1.18141e-08
4.55766e-07
1.17288e-08
4.54609e-07
1.14206e-08
4.53519e-07
1.0884e-08
4.52516e-07
1.01174e-08
4.51617e-07
9.12621e-09
4.50835e-07
7.92085e-09
4.50175e-07
6.5122e-09
4.49639e-07
4.91068e-09
4.49224e-07
3.13428e-09
4.48925e-07
1.20732e-09
4.48735e-07
-8.53441e-10
4.48642e-07
-3.03077e-09
4.48633e-07
-5.29657e-09
4.48695e-07
-7.64567e-09
4.48816e-07
-1.00576e-08
4.48993e-07
-1.25278e-08
4.49153e-07
4.48614e-07
9.82165e-09
4.37467e-07
6.92429e-09
4.37743e-07
7.46673e-09
4.37031e-07
8.26554e-09
4.36124e-07
9.01804e-09
4.35109e-07
9.67117e-09
4.34028e-07
1.01896e-08
4.32905e-07
1.05451e-08
4.31757e-07
1.07182e-08
4.30601e-07
1.06965e-08
4.29457e-07
1.0471e-08
4.28347e-07
1.00333e-08
4.27292e-07
9.37722e-09
4.26313e-07
8.50219e-09
4.25428e-07
7.41367e-09
4.24651e-07
6.11962e-09
4.23989e-07
4.62862e-09
4.23448e-07
2.95532e-09
4.23026e-07
1.12011e-09
4.2272e-07
-8.6155e-10
4.22524e-07
-2.97112e-09
4.22428e-07
-5.18076e-09
4.22421e-07
-7.4782e-09
4.22496e-07
-9.83921e-09
4.22646e-07
-1.22519e-08
4.22816e-07
4.2237e-07
9.4591e-09
4.12235e-07
6.24124e-09
4.12282e-07
6.60707e-09
4.11596e-07
7.30363e-09
4.10816e-07
7.99416e-09
4.0997e-07
8.60719e-09
4.09062e-07
9.10157e-09
4.08093e-07
9.44985e-09
4.07069e-07
9.63468e-09
4.06002e-07
9.64493e-09
4.04912e-07
9.4717e-09
4.03821e-07
9.10594e-09
4.02752e-07
8.53917e-09
4.01728e-07
7.7664e-09
4.00773e-07
6.78777e-09
3.99905e-07
5.60698e-09
3.99139e-07
4.22962e-09
3.98483e-07
2.66678e-09
3.97943e-07
9.3484e-10
3.9752e-07
-9.52444e-10
3.97212e-07
-2.97635e-09
3.97016e-07
-5.10991e-09
3.96925e-07
-7.3355e-09
3.96936e-07
-9.62607e-09
3.97045e-07
-1.19633e-08
3.97209e-07
3.9684e-07
8.91989e-09
3.87157e-07
5.58501e-09
3.87101e-07
5.86758e-09
3.86545e-07
6.50186e-09
3.85953e-07
7.13398e-09
3.85301e-07
7.68904e-09
3.84569e-07
8.13091e-09
3.83748e-07
8.43915e-09
3.82843e-07
8.60186e-09
3.81867e-07
8.61093e-09
3.8084e-07
8.45872e-09
3.79785e-07
8.1364e-09
3.78729e-07
7.63435e-09
3.77694e-07
6.94434e-09
3.76704e-07
6.06177e-09
3.75781e-07
4.98571e-09
3.74942e-07
3.71818e-09
3.742e-07
2.26664e-09
3.73564e-07
6.43797e-10
3.73042e-07
-1.13828e-09
3.72636e-07
-3.06129e-09
3.72349e-07
-5.09958e-09
3.7218e-07
-7.23198e-09
3.72129e-07
-9.42975e-09
3.72197e-07
-1.16696e-08
3.72355e-07
3.72052e-07
8.32127e-09
3.62691e-07
5.05372e-09
3.6266e-07
5.30616e-09
3.62268e-07
5.88381e-09
3.61843e-07
6.44034e-09
3.61335e-07
6.91132e-09
3.60721e-07
7.27271e-09
3.59996e-07
7.51372e-09
3.59167e-07
7.62852e-09
3.58252e-07
7.61192e-09
3.57274e-07
7.45722e-09
3.56256e-07
7.15561e-09
3.55222e-07
6.6966e-09
3.54195e-07
6.06968e-09
3.53197e-07
5.26663e-09
3.52247e-07
4.28259e-09
3.51365e-07