/*--------------------------------*- C++ -*----------------------------------*\
  =========                 |
  \\      /  F ield         | OpenFOAM: The Open Source CFD Toolbox
   \\    /   O peration     | Website:  https://openfoam.org
    \\  /    A nd           | Version:  7
     \\/     M anipulation  |
\*---------------------------------------------------------------------------*/
FoamFile
{
    version     2.0;
    format      ascii;
    class       surfaceScalarField;
    location    "0.01";
    object      phi.particles;
}
// * * * * * * * * * * * * * * * * * * * * * * * * * * * * * * * * * * * * * //

dimensions      [0 3 -1 0 0 0 0];

internalField   nonuniform List<scalar> 
21139
(
-1.37612e-07
1.34117e-07
-3.11571e-07
1.26907e-07
-4.73481e-07
1.28865e-07
-6.33783e-07
1.4813e-07
-8.32341e-07
1.83629e-07
-1.12861e-06
2.27468e-07
-1.57698e-06
2.82274e-07
-2.28921e-06
3.77722e-07
-3.52228e-06
5.34044e-07
-5.90756e-06
7.78021e-07
-1.42797e-05
1.76173e-06
-1.29654e-05
6.40756e-06
-9.31164e-06
1.27425e-05
-4.67465e-06
-9.39868e-08
-3.30254e-06
1.28237e-06
-2.49374e-06
1.83902e-06
-1.95073e-06
2.1131e-06
-1.54695e-06
2.25839e-06
-1.23249e-06
2.34552e-06
-9.77496e-07
2.40354e-06
-7.64376e-07
2.44372e-06
-5.80985e-07
2.47163e-06
-4.17777e-07
2.48982e-06
-2.679e-07
2.49983e-06
-1.28073e-07
2.50528e-06
2.51492e-06
-1.41979e-07
2.37023e-07
-3.0388e-07
2.4494e-07
-4.41348e-07
2.61946e-07
-5.6936e-07
2.9237e-07
-7.25827e-07
3.29955e-07
-9.48173e-07
3.74505e-07
-1.24256e-06
4.5653e-07
-1.63464e-06
6.52686e-07
-2.21475e-06
1.00342e-06
-3.30651e-06
1.43579e-06
-7.51046e-06
2.47384e-06
-8.94686e-06
9.24644e-06
-4.80112e-06
6.13141e-06
-3.24646e-06
1.20608e-08
-2.74957e-06
8.23921e-07
-2.23956e-06
1.36641e-06
-1.81826e-06
1.71141e-06
-1.46967e-06
1.93608e-06
-1.18244e-06
2.08701e-06
-9.43925e-07
2.19151e-06
-7.41847e-07
2.2665e-06
-5.66897e-07
2.32178e-06
-4.10563e-07
2.36245e-06
-2.64118e-07
2.38946e-06
-1.20121e-07
2.40011e-06
2.40144e-06
-1.36484e-07
3.44705e-07
-2.90204e-07
3.59751e-07
-4.16387e-07
3.85368e-07
-5.39954e-07
4.27287e-07
-6.93363e-07
4.82041e-07
-8.85799e-07
5.39502e-07
-1.07323e-06
5.96998e-07
-1.29587e-06
6.92547e-07
-1.71863e-06
9.38942e-07
-2.28745e-06
1.46054e-06
-5.2294e-06
2.33973e-06
-4.58248e-06
8.04068e-06
-2.98359e-06
8.01119e-06
-2.45476e-06
1.2472e-08
-2.2297e-06
5.78238e-07
-1.91457e-06
1.05025e-06
-1.60751e-06
1.40048e-06
-1.32822e-06
1.65454e-06
-1.08449e-06
1.83969e-06
-8.73578e-07
1.97594e-06
-6.8993e-07
2.07664e-06
-5.28671e-07
2.15091e-06
-3.85159e-07
2.20615e-06
-2.54159e-07
2.24641e-06
-1.18644e-07
2.27322e-06
2.2813e-06
-1.23446e-07
4.39549e-07
-2.67203e-07
4.53275e-07
-3.7772e-07
4.81851e-07
-4.88674e-07
5.28648e-07
-6.3855e-07
6.15303e-07
-8.3106e-07
7.59904e-07
-9.86254e-07
9.6587e-07
-1.0592e-06
1.14546e-06
-1.15201e-06
1.17683e-06
-1.45372e-06
1.32718e-06
-3.98399e-06
1.98962e-06
-3.87022e-06
8.11224e-06
-2.28883e-06
8.42329e-06
-1.90907e-06
1.31196e-08
-1.77876e-06
4.54747e-07
-1.58297e-06
8.48041e-07
-1.36679e-06
1.17525e-06
-1.15268e-06
1.43582e-06
-9.55218e-07
1.63846e-06
-7.77955e-07
1.79534e-06
-6.19342e-07
1.91616e-06
-4.76106e-07
2.008e-06
-3.46802e-07
2.07729e-06
-2.28618e-07
2.12537e-06
-1.10742e-07
2.15745e-06
2.17162e-06
-1.11758e-07
5.24438e-07
-2.41466e-07
5.30354e-07
-3.3457e-07
5.51216e-07
-4.07477e-07
5.68196e-07
-5.01388e-07
5.9653e-07
-6.33352e-07
6.51627e-07
-8.11941e-07
7.87158e-07
-1.03259e-06
1.02563e-06
-1.00864e-06
1.2606e-06
-1.0444e-06
1.42668e-06
-3.07467e-06
1.89531e-06
-3.17127e-06
7.88689e-06
-1.74138e-06
8.0036e-06
-1.47947e-06
1.26046e-08
-1.4014e-06
3.87674e-07
-1.27333e-06
7.29401e-07
-1.12004e-06
1.03106e-06
-9.60637e-07
1.28457e-06
-8.06427e-07
1.4915e-06
-6.63317e-07
1.65725e-06
-5.32206e-07
1.78795e-06
-4.10378e-07
1.88858e-06
-3.0117e-07
1.96453e-06
-1.98188e-07
2.02025e-06
-9.71571e-08
2.05783e-06
2.076e-06
-1.0758e-07
6.00189e-07
-2.22982e-07
6.15808e-07
-3.19746e-07
6.48779e-07
-3.8212e-07
6.92434e-07
-4.50706e-07
7.47134e-07
-5.04925e-07
8.04913e-07
-5.83551e-07
8.97046e-07
-8.0937e-07
1.06559e-06
-8.4599e-07
1.31487e-06
-7.88199e-07
1.47266e-06
-2.30768e-06
1.79107e-06
-2.40018e-06
7.40007e-06
-1.27516e-06
7.19266e-06
-1.11435e-06
1.13406e-08
-1.07278e-06
3.30308e-07
-9.87821e-07
6.38557e-07
-8.79907e-07
9.20938e-07
-7.64485e-07
1.16509e-06
-6.49231e-07
1.37095e-06
-5.39353e-07
1.54082e-06
-4.36777e-07
1.67904e-06
-3.38394e-07
1.78955e-06
-2.48352e-07
1.87338e-06
-1.62607e-07
1.93468e-06
-7.9909e-08
1.9756e-06
1.99531e-06
-9.42738e-08
6.39059e-07
-1.92853e-07
6.71436e-07
-2.79301e-07
7.03231e-07
-3.31258e-07
7.76394e-07
-3.9736e-07
8.6504e-07
-4.18482e-07
9.32095e-07
-4.23018e-07
9.74504e-07
-5.72577e-07
1.04147e-06
-6.91103e-07
1.22089e-06
-6.4669e-07
1.39575e-06
-1.59856e-06
1.67666e-06
-1.66605e-06
6.76038e-06
-8.68886e-07
5.96249e-06
-8.04114e-07
9.90493e-09
-7.76404e-07
2.97717e-07
-7.20377e-07
5.81064e-07
-6.4848e-07
8.45674e-07
-5.69237e-07
1.08078e-06
-4.88089e-07
1.28454e-06
-4.08271e-07
1.45649e-06
-3.32036e-07
1.59829e-06
-2.59006e-07
1.71396e-06
-1.90343e-07
1.80416e-06
-1.23921e-07
1.87005e-06
-6.12994e-08
1.91277e-06
1.93345e-06
-6.51388e-08
6.55578e-07
-1.63699e-07
6.78551e-07
-2.10549e-07
6.83968e-07
-2.47621e-07
7.50385e-07
-3.34341e-07
8.45483e-07
-3.78865e-07
9.33747e-07
-3.60031e-07
9.86947e-07
-4.04275e-07
1.03272e-06
-5.25276e-07
1.16744e-06
-5.17785e-07
1.36046e-06
-7.4614e-07
1.63428e-06
-8.79573e-07
5.01271e-06
-5.06906e-07
3.93691e-06
-5.25076e-07
8.80459e-09
-5.04199e-07
2.85084e-07
-4.69533e-07
5.51952e-07
-4.25448e-07
8.02249e-07
-3.75951e-07
1.02874e-06
-3.25055e-07
1.22948e-06
-2.73907e-07
1.40325e-06
-2.22515e-07
1.54851e-06
-1.73672e-07
1.66593e-06
-1.28073e-07
1.75787e-06
-8.35816e-08
1.82582e-06
-4.18351e-08
1.86969e-06
1.89209e-06
-4.49485e-08
7.05694e-07
-1.59463e-07
7.0217e-07
-1.48046e-07
6.98659e-07
-1.57769e-07
7.49481e-07
-2.51025e-07
8.30313e-07
-3.28753e-07
9.22714e-07
-3.17016e-07
9.97378e-07
-2.78638e-07
1.0622e-06
-3.46547e-07
1.17866e-06
-3.51651e-07
1.36598e-06
1.26325e-06
1.58981e-06
7.9908e-07
2.65079e-06
-1.91486e-07
1.28039e-06
-2.57515e-07
9.63957e-09
-2.48391e-07
2.78027e-07
-2.32598e-07
5.38331e-07
-2.11291e-07
7.84361e-07
-1.86371e-07
1.00826e-06
-1.61121e-07
1.20601e-06
-1.37021e-07
1.37701e-06
-1.11988e-07
1.52257e-06
-8.72308e-08
1.64172e-06
-6.42809e-08
1.73463e-06
-4.24349e-08
1.80315e-06
-2.08908e-08
1.84835e-06
1.87097e-06
-4.98796e-08
7.59135e-07
-1.63604e-07
7.38427e-07
-1.00084e-07
7.51671e-07
-8.12377e-08
7.87831e-07
-1.63652e-07
8.44564e-07
-2.58051e-07
9.24326e-07
-2.55346e-07
1.00361e-06
-1.68851e-07
1.07712e-06
-1.73421e-07
1.16943e-06
-1.54109e-07
1.31065e-06
-1.083e-07
1.4709e-06
-1.33727e-07
1.64565e-06
2.63401e-07
1.18418e-06
3.80201e-09
3.70757e-07
-2.89692e-10
2.33502e-07
-7.99438e-10
5.37767e-07
-1.09464e-09
8.40249e-07
-1.28417e-09
1.12653e-06
-1.46131e-09
1.38035e-06
-1.41797e-09
1.58886e-06
-1.25541e-09
1.76347e-06
-1.0715e-09
1.90853e-06
-8.38011e-10
2.02193e-06
-5.9917e-10
2.10501e-06
9.71008e-10
2.15686e-06
2.17867e-06
-7.11748e-08
7.62602e-07
-1.51781e-07
7.50555e-07
-6.57833e-08
7.91213e-07
-2.72241e-08
8.17188e-07
-8.79665e-08
8.45907e-07
-1.82759e-07
9.01255e-07
-1.84994e-07
9.71956e-07
-8.05889e-08
1.04186e-06
-4.17867e-08
1.10583e-06
2.97568e-08
1.18398e-06
2.2513e-07
1.28378e-06
9.30944e-07
1.37287e-06
8.16789e-07
1.6612e-06
2.54807e-08
9.83498e-07
-7.12686e-07
5.76257e-07
-1.47759e-06
1.06505e-06
-1.83629e-06
1.5574e-06
-1.9001e-06
1.92918e-06
-1.78195e-06
2.26283e-06
-1.57593e-06
2.5569e-06
-1.31959e-06
2.81421e-06
-1.05359e-06
3.0357e-06
-7.98508e-07
3.21343e-06
-5.58588e-07
3.34235e-06
-3.20382e-07
3.41626e-06
3.37859e-06
-8.43515e-08
7.20661e-07
-1.13896e-07
7.34136e-07
-4.11407e-08
7.88777e-07
2.48033e-10
8.07928e-07
-3.52519e-08
8.15097e-07
-1.1554e-07
8.44977e-07
-1.18089e-07
9.00802e-07
-1.83709e-08
9.61995e-07
3.27702e-08
1.0089e-06
1.19404e-07
1.05483e-06
2.74731e-07
1.0886e-06
4.7994e-07
1.07165e-06
8.1771e-07
8.90538e-07
6.04396e-07
9.96757e-07
-5.28659e-07
4.85544e-07
-1.3463e-06
8.94173e-07
-1.48839e-06
1.45554e-06
-1.46368e-06
1.83687e-06
-1.36141e-06
2.16028e-06
-1.21137e-06
2.43457e-06
-1.02989e-06
2.67682e-06
-8.34373e-07
2.88885e-06
-6.39337e-07
3.06148e-06
-4.42683e-07
3.19003e-06
-2.42441e-07
3.28559e-06
3.3054e-06
-7.37992e-08
6.78241e-07
-6.26759e-08
7.14134e-07
-2.30845e-08
7.61984e-07
7.01431e-09
7.7439e-07
-6.86246e-09
7.70817e-07
-6.24347e-08
7.8314e-07
-5.95647e-08
8.22405e-07
2.73197e-08
8.67727e-07
7.82297e-08
8.97412e-07
1.51947e-07
9.34934e-07
2.57192e-07
9.50269e-07
3.85136e-07
9.37867e-07
4.63057e-07
8.65617e-07
4.40491e-07
7.48906e-07
3.70869e-07
6.50257e-07
2.90994e-07
5.93088e-07
2.04323e-07
5.62881e-07
1.25401e-07
5.52034e-07
6.15953e-08
5.57055e-07
1.43182e-08
5.72693e-07
-1.47778e-08
5.95941e-07
-3.06651e-08
6.22175e-07
-3.49667e-08
6.46191e-07
-1.78477e-09
6.60288e-07
-1.76201e-08
6.44951e-07
6.43526e-07
-4.25648e-08
6.67249e-07
-1.78335e-08
7.07764e-07
-1.14917e-08
7.36551e-07
3.38146e-09
7.41939e-07
4.57355e-09
7.36686e-07
-2.52256e-08
7.43741e-07
-1.64132e-08
7.74993e-07
5.58607e-08
8.11154e-07
1.14935e-07
8.29692e-07
1.68508e-07
8.55526e-07
2.47274e-07
8.62598e-07
3.1864e-07
8.38788e-07
3.69078e-07
7.79616e-07
3.57693e-07
6.94124e-07
3.25314e-07
6.21967e-07
2.82909e-07
5.65337e-07
2.30181e-07
5.22459e-07
1.7406e-07
4.91502e-07
1.22913e-07
4.71904e-07
8.03751e-08
4.63711e-07
4.86421e-08
4.6345e-07
2.39107e-08
4.62906e-07
3.01208e-09
4.60362e-07
3.41295e-09
4.76489e-07
-6.4989e-09
4.83113e-07
4.82837e-07
-6.34865e-09
6.81358e-07
8.94243e-09
7.09647e-07
-6.55261e-09
7.1911e-07
-1.80872e-09
7.18711e-07
1.09994e-08
7.14557e-07
4.29316e-09
7.20769e-07
1.78904e-08
7.46449e-07
7.35787e-08
7.73598e-07
1.39982e-07
7.79827e-07
1.76676e-07
7.75236e-07
2.26826e-07
7.67172e-07
2.6518e-07
7.40723e-07
2.97814e-07
6.9752e-07
2.95815e-07
6.38313e-07
2.75639e-07
5.81308e-07
2.43969e-07
5.31159e-07
2.02807e-07
4.89135e-07
1.58141e-07
4.56539e-07
1.16787e-07
4.35212e-07
8.14656e-08
4.2751e-07
4.96095e-08
4.34848e-07
2.26044e-08
4.50843e-07
1.9199e-08
4.62184e-07
1.13278e-08
4.67734e-07
-1.77607e-09
4.70031e-07
4.68472e-07
1.89274e-08
6.93334e-07
1.7343e-08
7.04001e-07
-7.0886e-09
7.02667e-07
-5.86805e-09
7.00945e-07
1.67079e-08
6.98543e-07
2.85661e-08
7.02974e-07
4.36544e-08
7.23402e-07
7.94994e-08
7.48317e-07
1.35561e-07
7.62556e-07
1.69267e-07
7.59735e-07
2.02352e-07
7.52216e-07
2.25529e-07
7.33071e-07
2.4425e-07
7.03587e-07
2.44168e-07
6.62629e-07
2.29582e-07
6.18524e-07
2.04586e-07
5.76187e-07
1.72084e-07
5.3847e-07
1.38544e-07
5.06488e-07
1.10019e-07
4.81498e-07
8.81319e-08
4.63532e-07
6.49623e-08
4.54235e-07
3.3837e-08
4.53283e-07
2.49292e-08
4.57873e-07
1.43112e-08
4.57756e-07
-3.10605e-10
4.56618e-07
4.54702e-07
2.76173e-08
6.81717e-07
1.54491e-08
6.80214e-07
-8.87859e-09
6.78412e-07
-8.21265e-09
6.81868e-07
2.07318e-08
6.85003e-07
4.77492e-08
6.88268e-07
6.70754e-08
6.99726e-07
9.26815e-08
7.15246e-07
1.32431e-07
7.25973e-07
1.61936e-07
7.22551e-07
1.84354e-07
7.11078e-07
1.98213e-07
6.90955e-07
2.06532e-07
6.63502e-07
2.03631e-07
6.28927e-07
1.90476e-07
5.92048e-07
1.69266e-07
5.57232e-07
1.4232e-07
5.27299e-07
1.15093e-07
5.02743e-07
9.40228e-08
4.82799e-07
7.98669e-08
4.66209e-07
6.41231e-08
4.53565e-07
3.84554e-08
4.46277e-07
2.50977e-08
4.46102e-07
1.37815e-08
4.45443e-07
1.36238e-10
4.44657e-07
4.43551e-07
2.48643e-08
6.44542e-07
1.31231e-08
6.39406e-07
-5.74931e-09
6.4188e-07
-5.24701e-09
6.52676e-07
2.36795e-08
6.63716e-07
5.83253e-08
6.68847e-07
8.14217e-08
6.72136e-07
1.0246e-07
6.75541e-07
1.28699e-07
6.75058e-07
1.5074e-07
6.64668e-07
1.65316e-07
6.46133e-07
1.72542e-07
6.21363e-07
1.74421e-07
5.92312e-07
1.69524e-07
5.60295e-07
1.58296e-07
5.28665e-07
1.41471e-07
5.01019e-07
1.19728e-07
4.79935e-07
9.66467e-08
4.65916e-07
7.86544e-08
4.5677e-07
6.83563e-08
4.49017e-07
5.74132e-08
4.41479e-07
3.84464e-08
4.36245e-07
2.46797e-08
4.35764e-07
1.34648e-08
4.35913e-07
9.78685e-10
4.357e-07
4.34672e-07
1.86957e-08
5.96659e-07
1.49164e-08
5.93303e-07
4.35272e-09
5.98324e-07
5.27011e-09
6.13208e-07
2.85042e-08
6.3062e-07
6.12361e-08
6.40838e-07
8.4361e-08
6.4287e-07
1.01778e-07
6.40617e-07
1.18652e-07
6.3367e-07
1.33032e-07
6.19786e-07
1.41845e-07
5.99573e-07
1.45136e-07
5.7519e-07
1.4432e-07
5.48709e-07
1.39907e-07
5.21519e-07
1.32549e-07
4.95438e-07
1.21913e-07
4.72664e-07
1.06699e-07
4.55343e-07
8.79874e-08
4.4482e-07
7.1069e-08
4.40108e-07
6.08707e-08
4.37669e-07
5.21302e-08
4.3417e-07
3.77185e-08
4.30669e-07
2.46377e-08
4.29606e-07
1.33939e-08
4.29229e-07
1.58077e-09
4.2844e-07
4.26651e-07
1.41812e-08
5.56974e-07
1.92304e-08
5.56113e-07
1.83611e-08
5.59554e-07
2.18413e-08
5.7225e-07
3.82313e-08
5.89598e-07
6.31228e-08
6.02198e-07
8.21933e-08
6.05884e-07
9.52232e-08
6.03323e-07
1.05601e-07
5.95805e-07
1.14077e-07
5.83381e-07
1.19e-07
5.66807e-07
1.20266e-07
5.47734e-07
1.18664e-07
5.2771e-07
1.15193e-07
5.07759e-07
1.10962e-07
4.8847e-07
1.05602e-07
4.70484e-07
9.6869e-08
4.5499e-07
8.36175e-08
4.43627e-07
6.87201e-08
4.37056e-07
5.73751e-08
4.33685e-07
4.85738e-08
4.30242e-07
3.64853e-08
4.26286e-07
2.41405e-08
4.23668e-07
1.28324e-08
4.2191e-07
1.44717e-09
4.20237e-07
4.17788e-07
1.19938e-08
5.35478e-07
2.21595e-08
5.35816e-07
3.03127e-08
5.36234e-07
3.82969e-08
5.43071e-07
5.02276e-08
5.54394e-07
6.67315e-08
5.63769e-07
7.99967e-08
5.66702e-07
8.84455e-08
5.64075e-07
9.42614e-08
5.57406e-07
9.8867e-08
5.47464e-07
1.01446e-07
5.35107e-07
1.01718e-07
5.21557e-07
9.99611e-08
5.07731e-07
9.68696e-08
4.94201e-07
9.36802e-08
4.80992e-07
9.06136e-08
4.67782e-07
8.58751e-08
4.54719e-07
7.73295e-08
4.4298e-07
6.55302e-08
4.33994e-07
5.41106e-08
4.27939e-07
4.4805e-08
4.23045e-07
3.39958e-08
4.18226e-07
2.2528e-08
4.14466e-07
1.1531e-08
4.11811e-07
6.98455e-10
4.09816e-07
4.07212e-07
1.09485e-08
5.28304e-07
2.22829e-08
5.29171e-07
3.66829e-08
5.28025e-07
4.89674e-08
5.29465e-07
5.91313e-08
5.32992e-07
6.96479e-08
5.35715e-07
7.77682e-08
5.34665e-07
8.24554e-08
5.29874e-07
8.51975e-08
5.22569e-07
8.75109e-08
5.13501e-07
8.89972e-08
5.03158e-07
8.90396e-08
4.92355e-07
8.74717e-08
4.8173e-07
8.44742e-08
4.71654e-07
8.10112e-08
4.6209e-07
7.7863e-08
4.52529e-07
7.42723e-08
4.42483e-07
6.83866e-08
4.32336e-07
5.95258e-08
4.23337e-07
4.93927e-08
4.16342e-07
4.0263e-08
4.10924e-07
3.05061e-08
4.0617e-07
2.01065e-08
4.02379e-07
9.80966e-09
3.99727e-07
-3.1558e-10
3.97948e-07
3.95346e-07
1.04484e-08
5.24636e-07
2.09397e-08
5.26206e-07
3.79347e-08
5.25513e-07
5.22285e-08
5.23923e-07
6.16504e-08
5.21435e-07
6.85673e-08
5.17782e-07
7.3059e-08
5.11949e-07
7.52128e-08
5.04017e-07
7.61425e-08
4.94891e-07
7.71266e-08
4.85243e-07
7.81797e-08
4.75192e-07
7.86352e-08
4.65015e-07
7.79504e-08
4.55143e-07
7.56512e-08
4.45953e-07
7.21259e-08
4.37621e-07
6.82955e-08
4.29878e-07
6.43496e-08
4.22198e-07
5.93697e-08
4.14354e-07
5.23536e-08
4.06983e-07
4.37566e-08
4.00845e-07
3.53342e-08
3.96077e-07
2.66044e-08
3.92153e-07
1.73815e-08
3.89036e-07
8.04369e-09
3.8684e-07
-1.42924e-09
3.85386e-07
3.82882e-07
1.0669e-08
5.16624e-07
2.00136e-08
5.18999e-07
3.63394e-08
5.19575e-07
4.98343e-08
5.16904e-07
5.81737e-08
5.11273e-07
6.29852e-08
5.03701e-07
6.53831e-08
4.94602e-07
6.62615e-08
4.84504e-07
6.65488e-08
4.7402e-07
6.70123e-08
4.63616e-07
6.77856e-08
4.53369e-07
6.84167e-08
4.43248e-07
6.84145e-08
4.33409e-07
6.72466e-08
4.24217e-07
6.47809e-08
4.15921e-07
6.12829e-08
4.08533e-07
5.71656e-08
4.01861e-07
5.24987e-08
3.95459e-07
4.64905e-08
3.89429e-07
3.90817e-08
3.84323e-07
3.14232e-08
3.80355e-07
2.35025e-08
3.77179e-07
1.52127e-08
3.74646e-07
6.68463e-09
3.7279e-07
-2.33692e-09
3.71566e-07
3.69387e-07
1.17106e-08
5.0185e-07
2.02181e-08
5.04699e-07
3.36556e-08
5.05796e-07
4.43899e-08
5.02668e-07
5.09748e-08
4.95971e-07
5.44477e-08
4.87047e-07
5.59704e-08
4.76862e-07
5.64976e-08
4.66235e-07
5.68108e-08
4.55662e-07
5.73078e-08
4.45344e-07
5.80197e-08
4.35322e-07
5.86787e-08
4.25533e-07
5.89325e-08
4.15991e-07
5.8413e-08
4.06973e-07
5.68488e-08
3.98724e-07
5.42103e-08
3.91388e-07
5.08141e-08
3.84985e-07
4.69804e-08
3.79162e-07
4.20547e-08
3.73729e-07
3.57348e-08
3.69033e-07
2.87826e-08
3.65258e-07
2.14374e-08
3.62209e-07
1.37041e-08
3.59756e-07
5.57364e-09
3.57904e-07
-2.91154e-09
3.56769e-07
3.54601e-07
1.33095e-08
4.81222e-07
2.08585e-08
4.83924e-07
3.04751e-08
4.841e-07
3.77645e-08
4.80256e-07
4.21917e-08
4.73328e-07
4.45129e-08
4.64569e-07
4.57732e-08
4.54954e-07
4.65827e-08
4.45151e-07
4.73409e-08
4.35549e-07
4.82082e-08
4.26205e-07
4.91509e-08
4.17064e-07
5.00101e-08
4.08047e-07
5.05127e-08
3.992e-07
5.03992e-08
3.90754e-07
4.9442e-08
3.82871e-07
4.7453e-08
3.75707e-07
4.45069e-08
3.69413e-07
4.10505e-08
3.6391e-07
3.69075e-08
3.58923e-07
3.16935e-08
3.54452e-07
2.5695e-08
3.50609e-07
1.90931e-08
3.47375e-07
1.19301e-08
3.44701e-07
4.17944e-09
3.42637e-07
-3.6672e-09
3.41543e-07
3.39158e-07
1.4932e-08
4.56805e-07
2.06693e-08
4.5864e-07
2.66819e-08
4.56963e-07
3.09731e-08
4.52148e-07
3.35517e-08
4.452e-07
3.49509e-08
4.37113e-07
3.59475e-08
4.28698e-07
3.69099e-08
4.20356e-07
3.79533e-08
4.12251e-07
3.91824e-08
4.04358e-07
4.05834e-08
3.96561e-07
4.19636e-08
3.88778e-07
4.29811e-08
3.81033e-07
4.33724e-08
3.73467e-07
4.30105e-08
3.66155e-07
4.17138e-08
3.59204e-07
3.93303e-08
3.52842e-07
3.61905e-08
3.47291e-07
3.2413e-08
3.42382e-07
2.77674e-08
3.37962e-07
2.23973e-08
3.34083e-07
1.64099e-08
3.30759e-07
9.83505e-09
3.27969e-07
2.75231e-09
3.25821e-07
-4.5684e-09
3.24859e-07
3.22784e-07
1.59079e-08
4.30209e-07
1.88355e-08
4.30664e-07
2.20931e-08
4.27258e-07
2.43273e-08
4.21717e-07
2.57477e-08
4.1497e-07
2.67306e-08
4.07711e-07
2.76696e-08
4.0048e-07
2.87166e-08
3.93504e-07
2.98318e-08
3.86802e-07
3.10561e-08
3.80316e-07
3.24244e-08
3.7394e-07
3.38471e-08
3.67587e-07
3.51221e-08
3.61216e-07
3.606e-08
3.54825e-07
3.64957e-08
3.48407e-07
3.60997e-08
3.42045e-07
3.45566e-08
3.35942e-07
3.19888e-08
3.30361e-07
2.86182e-08
3.25275e-07
2.44245e-08
3.20642e-07
1.95279e-08
3.16563e-07
1.4007e-08
3.13091e-07
7.90849e-09
3.10262e-07
1.53159e-09
3.0825e-07
-5.25882e-09
3.07432e-07
3.05846e-07
1.57146e-08
4.01995e-07
1.54762e-08
4.01061e-07
1.69234e-08
3.96826e-07
1.80221e-08
3.91263e-07
1.89288e-08
3.85138e-07
1.98849e-08
3.78884e-07
2.0984e-08
3.72769e-07
2.21864e-08
3.66893e-07
2.33841e-08
3.61257e-07
2.45799e-08
3.55833e-07
2.58347e-08
3.50556e-07
2.7113e-08
3.45344e-07
2.82632e-08
3.40143e-07
2.91416e-08
3.34908e-07
2.96563e-08
3.29594e-07
2.9553e-08
3.242e-07
2.85904e-08
3.18838e-07
2.6735e-08
3.13654e-07
2.40777e-08
3.08746e-07
2.05985e-08
3.042e-07
1.63619e-08
3.00157e-07
1.14609e-08
2.96716e-07
6.00712e-09
2.93962e-07
2.64136e-10
2.92107e-07
-5.73122e-09
2.91279e-07
2.89757e-07
1.42798e-08
3.72355e-07
1.1403e-08
3.70522e-07
1.17863e-08
3.66488e-07
1.23852e-08
3.61691e-07
1.31813e-08
3.56669e-07
1.42625e-08
3.51641e-07
1.55618e-08
3.46684e-07
1.69436e-08
3.41823e-07
1.82745e-08
3.3708e-07
1.95249e-08
3.32481e-07
2.07453e-08
3.28012e-07
2.19255e-08
3.2361e-07
2.29291e-08
3.1921e-07
2.36105e-08
3.14778e-07
2.39356e-08
3.10282e-07
2.37833e-08
3.05692e-07
2.29725e-08
3.01065e-07
2.14378e-08
2.96516e-07
1.92095e-08
2.92168e-07
1.62877e-08
2.88117e-07
1.27041e-08
2.84492e-07
8.5333e-09
2.8142e-07
3.97563e-09
2.79001e-07
-9.71058e-10
2.77339e-07
-6.0702e-09
2.76454e-07
2.74975e-07
1.20183e-08
3.42023e-07
7.54601e-09
3.3997e-07
7.37684e-09
3.3683e-07
7.80377e-09
3.33301e-07
8.62399e-09
3.29683e-07
9.79601e-09
3.26023e-07
1.11981e-08
3.22299e-07
1.26895e-08
3.18503e-07
1.41391e-08
3.14673e-07
1.54798e-08
3.10867e-07
1.67184e-08
3.07109e-07
1.78447e-08
3.03365e-07
1.87516e-08
2.99577e-07
1.92961e-08
2.95715e-07
1.94411e-08
2.91782e-07
1.91668e-08
2.87773e-07
1.83629e-08
2.83727e-07
1.69874e-08
2.79745e-07
1.50502e-08
2.75934e-07
1.25701e-08
2.72394e-07
9.56369e-09
2.69236e-07
6.05427e-09
2.66592e-07
2.28076e-09
2.646e-07
-1.80123e-09
2.63249e-07
-6.10119e-09
2.62419e-07
2.61351e-07
9.55452e-09
3.12384e-07
4.53461e-09
3.10636e-07
4.14207e-09
3.08628e-07
4.51899e-09
3.06467e-07
5.33401e-09
3.04249e-07
6.47853e-09
3.01924e-07
7.8418e-09
2.99431e-07
9.32317e-09
2.96746e-07
1.08091e-08
2.93898e-07
1.21987e-08
2.90937e-07
1.34424e-08
2.87899e-07
1.451e-08
2.84775e-07
1.53229e-08
2.81536e-07
1.57695e-08
2.78169e-07
1.58071e-08
2.74702e-07
1.54557e-08
2.71167e-07
1.46614e-08
2.6761e-07
1.34073e-08
2.64114e-07
1.17075e-08
2.6078e-07
9.5911e-09
2.5771e-07
7.08598e-09
2.55e-07
4.19005e-09
2.52755e-07
1.04576e-09
2.51129e-07
-2.26404e-09
2.50117e-07
-5.82546e-09
2.49477e-07
2.48779e-07
7.39044e-09
2.8489e-07
2.58379e-09
2.83673e-07
2.16649e-09
2.82681e-07
2.51549e-09
2.8167e-07
3.25725e-09
2.8061e-07
4.27277e-09
2.79417e-07
5.48626e-09
2.78025e-07
6.84116e-09
2.76401e-07
8.24665e-09
2.74538e-07
9.58318e-09
2.7245e-07
1.07589e-08
2.70161e-07
1.17225e-08
2.67672e-07
1.24144e-08
2.64982e-07
1.2758e-08
2.62106e-07
1.27206e-08
2.59092e-07
1.23322e-08
2.56007e-07
1.15802e-08
2.52913e-07
1.04635e-08
2.49894e-07
8.99804e-09
2.4704e-07
7.21079e-09
2.44437e-07
5.13376e-09
2.42171e-07
2.78996e-09
2.40314e-07
2.08317e-10
2.38981e-07
-2.46908e-09
2.38209e-07
-5.3781e-09
2.37778e-07
2.3724e-07
5.75419e-09
2.60492e-07
1.58787e-09
2.59789e-07
1.24923e-09
2.59518e-07
1.56789e-09
2.59292e-07
2.20297e-09
2.59039e-07
3.05375e-09
2.58677e-07
4.0715e-09
2.5815e-07
5.22526e-09
2.57411e-07
6.44481e-09
2.56416e-07
7.61295e-09
2.55139e-07
8.62092e-09
2.53576e-07
9.40854e-09
2.51737e-07
9.93426e-09
2.49635e-07
1.01526e-08
2.47304e-07
1.00471e-08
2.44807e-07
9.64613e-09
2.4222e-07
8.95807e-09
2.39619e-07
7.9882e-09
2.37085e-07
6.75109e-09
2.34701e-07
5.27192e-09
2.32538e-07
3.57036e-09
2.30666e-07
1.68824e-09
2.29145e-07
-3.91662e-10
2.28041e-07
-2.55028e-09
2.27403e-07
-4.90436e-09
2.27076e-07
2.2664e-07
4.64259e-09
2.39494e-07
1.27411e-09
2.39179e-07
1.05504e-09
2.39308e-07
1.3554e-09
2.39513e-07
1.89974e-09
2.39728e-07
2.60879e-09
2.39887e-07
3.44175e-09
2.39934e-07
4.37188e-09
2.39813e-07
5.34438e-09
2.3946e-07
6.26231e-09
2.38822e-07
7.02656e-09
2.37878e-07
7.58175e-09
2.36634e-07
7.90429e-09
2.35114e-07
7.97381e-09
2.33359e-07
7.78924e-09
2.31431e-07
7.37585e-09
2.29403e-07
6.74973e-09
2.27342e-07
5.91653e-09
2.25321e-07
4.88277e-09
2.23412e-07
3.67062e-09
2.21677e-07
2.29109e-09
2.2017e-07
7.79982e-10
2.1894e-07
-8.82057e-10
2.1803e-07
-2.61978e-09
2.17481e-07
-4.5132e-09
2.17187e-07
2.16787e-07
3.94008e-09
2.21726e-07
1.34306e-09
2.21658e-07
1.25722e-09
2.21938e-07
1.57062e-09
2.2232e-07
2.06625e-09
2.22753e-07
2.67828e-09
2.23171e-07
3.36183e-09
2.23518e-07
4.08358e-09
2.23734e-07
4.79954e-09
2.23754e-07
5.44097e-09
2.23525e-07
5.93544e-09
2.23018e-07
6.24288e-09
2.22242e-07
6.35531e-09
2.21223e-07
6.27037e-09
2.20001e-07
5.99699e-09
2.18628e-07
5.55769e-09
2.1716e-07
4.97046e-09
2.1565e-07
4.24132e-09
2.14153e-07
3.36913e-09
2.12721e-07
2.36641e-09
2.11408e-07
1.2422e-09
2.10255e-07
1.92308e-11
2.09301e-07
-1.31508e-09
2.08576e-07
-2.72274e-09
2.08111e-07
-4.25066e-09
2.07834e-07
2.07429e-07
3.51178e-09
2.06764e-07
1.56386e-09
2.06833e-07
1.62112e-09
2.07127e-07
1.98273e-09
2.07541e-07
2.46717e-09
2.08027e-07
3.01572e-09
2.08516e-07
3.58025e-09
2.0895e-07
4.1228e-09
2.09274e-07
4.60894e-09
2.09436e-07
4.99716e-09
2.09399e-07
5.24532e-09
2.09144e-07
5.3322e-09
2.08681e-07
5.26134e-09
2.08035e-07
5.04107e-09
2.0724e-07
4.68454e-09
2.06335e-07
4.21093e-09
2.05359e-07
3.63734e-09
2.04346e-07
2.9713e-09
2.0333e-07
2.21039e-09
2.02343e-07
1.35633e-09
2.01425e-07
4.1584e-10
2.00607e-07
-5.97947e-10
1.99917e-07
-1.69222e-09
1.99377e-07
-2.85335e-09
1.99008e-07
-4.10856e-09
1.98756e-07
1.98341e-07
3.24944e-09
1.94096e-07
1.80603e-09
1.94238e-07
2.01328e-09
1.94494e-07
2.44258e-09
1.94866e-07
2.93111e-09
1.95303e-07
3.42778e-09
1.95736e-07
3.88993e-09
1.9611e-07
4.28307e-09
1.96386e-07
4.58302e-09
1.96534e-07
4.76975e-09
1.96536e-07
4.82573e-09
1.96388e-07
4.74564e-09
1.96101e-07
4.53982e-09
1.95699e-07
4.22101e-09
1.95206e-07
3.80226e-09
1.94649e-07
3.29849e-09
1.94051e-07
2.72434e-09
1.93431e-07
2.08875e-09
1.92805e-07
1.39259e-09
1.9219e-07
6.32154e-10
1.91607e-07
-1.8915e-10
1.91078e-07
-1.06399e-09
1.90622e-07
-1.99798e-09
1.90254e-07
-2.98801e-09
1.89988e-07
-4.05191e-09
1.89779e-07
1.8937e-07
3.08605e-09
1.83213e-07
2.02113e-09
1.83403e-07
2.36635e-09
1.83614e-07
2.85511e-09
1.83903e-07
3.33956e-09
1.84221e-07
3.78106e-09
1.84512e-07
4.15046e-09
1.84739e-07
4.42352e-09
1.84882e-07
4.58617e-09
1.8493e-07
4.63247e-09
1.84885e-07
4.56023e-09
1.84752e-07
4.37379e-09
1.84545e-07
4.08588e-09
1.84282e-07
3.70963e-09
1.83978e-07
3.25583e-09
1.83649e-07
2.7348e-09
1.83306e-07
2.15788e-09
1.82959e-07
1.53471e-09
1.82612e-07
8.70266e-10
1.8227e-07
1.60788e-10
1.81942e-07
-5.92448e-10
1.81638e-07
-1.38411e-09
1.81371e-07
-2.22078e-09
1.8115e-07
-3.10247e-09
1.80984e-07
-4.03974e-09
1.80828e-07
1.8045e-07
2.99296e-09
1.73658e-07
2.20019e-09
1.73893e-07
2.64084e-09
1.74051e-07
3.15507e-09
1.74226e-07
3.61387e-09
1.7438e-07
3.99446e-09
1.74486e-07
4.28328e-09
1.74528e-07
4.46765e-09
1.74506e-07
4.54133e-09
1.74424e-07
4.50541e-09
1.74295e-07
4.36439e-09
1.74129e-07
4.12592e-09
1.7394e-07
3.80178e-09
1.7374e-07
3.40344e-09
1.73537e-07
2.93926e-09
1.73338e-07
2.41584e-09
1.73146e-07
1.8412e-09
1.72963e-07
1.22476e-09
1.7279e-07
5.74538e-10
1.72625e-07
-1.10533e-10
1.72468e-07
-8.29609e-10
1.72323e-07
-1.57694e-09
1.72195e-07
-2.35949e-09
1.72089e-07
-3.17677e-09
1.72009e-07
-4.0367e-09
1.71912e-07
1.71583e-07
2.96261e-09
1.65033e-07
2.33603e-09
1.65305e-07
2.80613e-09
1.65393e-07
3.30076e-09
1.6543e-07
3.7126e-09
1.65407e-07
4.03304e-09
1.65325e-07
4.25984e-09
1.65189e-07
4.38827e-09
1.65012e-07
4.41614e-09
1.64808e-07
4.34623e-09
1.6459e-07
4.18365e-09
1.64374e-07
3.93497e-09
1.64168e-07
3.60902e-09
1.6398e-07
3.21478e-09
1.63814e-07
2.75894e-09
1.6367e-07
2.24603e-09
1.63549e-07
1.68148e-09
1.63449e-07
1.07389e-09
1.63366e-07
4.32645e-10
1.63299e-07
-2.40239e-10
1.63243e-07
-9.43058e-10
1.63196e-07
-1.66891e-09
1.63159e-07
-2.42357e-09
1.63134e-07
-3.20455e-09
1.63121e-07
-4.02005e-09
1.6308e-07
1.62806e-07
2.98383e-09
1.56999e-07
2.40915e-09
1.57279e-07
2.84129e-09
1.57274e-07
3.27906e-09
1.57173e-07
3.63336e-09
1.56995e-07
3.90318e-09
1.56759e-07
4.09028e-09
1.56487e-07
4.19248e-09
1.56194e-07
4.20805e-09
1.55896e-07
4.13832e-09
1.55608e-07
3.98608e-09
1.5534e-07
3.75487e-09
1.551e-07
3.44985e-09
1.54894e-07
3.07737e-09
1.54723e-07
2.64301e-09
1.54586e-07
2.15058e-09
1.5448e-07
1.60416e-09
1.54403e-07
1.01126e-09
1.54353e-07
3.81232e-10
1.54325e-07
-2.81751e-10
1.54314e-07
-9.74575e-10
1.54316e-07
-1.68938e-09
1.5433e-07
-2.42971e-09
1.54353e-07
-3.19155e-09
1.54384e-07
-3.98085e-09
1.54386e-07
1.54164e-07
3.02643e-09
1.4927e-07
2.39755e-09
1.49513e-07
2.74542e-09
1.4941e-07
3.10954e-09
1.49198e-07
3.40946e-09
1.48913e-07
3.64358e-09
1.48585e-07
3.81128e-09
1.48235e-07
3.9088e-09
1.47878e-07
3.93279e-09
1.47527e-07
3.88213e-09
1.47194e-07
3.75682e-09
1.46886e-07
3.55733e-09
1.4661e-07
3.28554e-09
1.46372e-07
2.94526e-09
1.46172e-07
2.54104e-09
1.46011e-07
2.07654e-09
1.45886e-07
1.5553e-09
1.45797e-07
9.83786e-10
1.45739e-07
3.7057e-10
1.4571e-07
-2.79269e-10
1.45705e-07
-9.61306e-10
1.45719e-07
-1.66712e-09
1.4575e-07
-2.39759e-09
1.45792e-07
-3.14735e-09
1.45845e-07
-3.91944e-09
1.45875e-07
1.45697e-07
3.04656e-09
1.41625e-07
2.29482e-09
1.41792e-07
2.5444e-09
1.41611e-07
2.83966e-09
1.41338e-07
3.09772e-09
1.41012e-07
3.31045e-09
1.40657e-07
3.4718e-09
1.40288e-07
3.57505e-09
1.39917e-07
3.61499e-09
1.39551e-07
3.5886e-09
1.392e-07
3.49391e-09
1.38869e-07
3.32931e-09
1.38565e-07
3.0943e-09
1.38293e-07
2.7905e-09
1.38057e-07
2.42114e-09
1.37858e-07
1.98954e-09
1.37698e-07
1.49891e-09
1.37575e-07
9.54732e-10
1.37487e-07
3.64476e-10
1.37433e-07
-2.66732e-10
1.37408e-07
-9.33615e-10
1.37409e-07
-1.62756e-09
1.37432e-07
-2.3469e-09
1.37473e-07
-3.085e-09
1.37529e-07
-3.84195e-09
1.37573e-07
1.37428e-07
3.00704e-09
1.3394e-07
2.11974e-09
1.3402e-07
2.28569e-09
1.33802e-07
2.53012e-09
1.33525e-07
2.76037e-09
1.33214e-07
2.96019e-09
1.32885e-07
3.11876e-09
1.32542e-07
3.22744e-09
1.32192e-07
3.28025e-09
1.31839e-07
3.27342e-09
1.31491e-07
3.20419e-09
1.31153e-07
3.06999e-09
1.30832e-07
2.86892e-09
1.30535e-07
2.6008e-09
1.30266e-07
2.26732e-09
1.30031e-07
1.8709e-09
1.29832e-07
1.41418e-09
1.29669e-07
9.01641e-10
1.29543e-07
3.39528e-10
1.29452e-07
-2.67419e-10
1.29395e-07
-9.13529e-10
1.29369e-07
-1.59027e-09
1.2937e-07
-2.29384e-09
1.29396e-07
-3.01653e-09
1.29444e-07
-3.75573e-09
1.29493e-07
1.29372e-07
2.89596e-09
1.2621e-07
1.91066e-09
1.26221e-07
2.02258e-09
1.26011e-07
2.23576e-09
1.25773e-07
2.44709e-09
1.25514e-07
2.63469e-09
1.25237e-07
2.78596e-09
1.24941e-07
2.8925e-09
1.24628e-07
2.94898e-09
1.24303e-07
2.95201e-09
1.2397e-07
2.89886e-09
1.23638e-07
2.78676e-09
1.23312e-07
2.6131e-09
1.23e-07
2.37637e-09
1.2271e-07
2.0766e-09
1.22446e-07
1.71494e-09
1.22214e-07
1.29308e-09
1.22015e-07
8.1442e-10
1.21852e-07
2.83985e-10
1.21725e-07
-2.9402e-10
1.21633e-07
-9.1386e-10
1.21576e-07
-1.56728e-09
1.21551e-07
-2.24885e-09
1.21556e-07
-2.95008e-09
1.21592e-07
-3.66606e-09
1.2164e-07
1.21539e-07
2.73082e-09
1.18529e-07
1.70977e-09
1.1851e-07
1.79623e-09
1.1834e-07
1.99037e-09
1.18158e-07
2.18385e-09
1.17959e-07
2.35373e-09
1.17735e-07
2.48896e-09
1.17485e-07
2.58328e-09
1.17208e-07
2.63303e-09
1.1691e-07
2.63575e-09
1.16596e-07
2.58908e-09
1.16275e-07
2.49032e-09
1.15952e-07
2.33653e-09
1.15637e-07
2.12519e-09
1.15335e-07
1.85489e-09
1.15054e-07
1.52534e-09
1.14798e-07
1.13717e-09
1.14573e-07
6.9264e-10
1.1438e-07
1.95658e-10
1.14222e-07
-3.50086e-10
1.141e-07
-9.3899e-10
1.14014e-07
-1.5632e-09
1.13964e-07
-2.21621e-09
1.13951e-07
-2.88909e-09
1.13973e-07
-3.57515e-09
1.1402e-07
1.13936e-07
2.54751e-09
1.11036e-07
1.54712e-09
1.11026e-07
1.62438e-09
1.10906e-07
1.8012e-09
1.10775e-07
1.97155e-09
1.1062e-07
2.11571e-09
1.10433e-07
2.22632e-09
1.10211e-07
2.30007e-09
1.09957e-07
2.33518e-09
1.09678e-07
2.33006e-09
1.09379e-07
2.28266e-09
1.09068e-07
2.19027e-09
1.08752e-07
2.04969e-09
1.08438e-07
1.85771e-09
1.08134e-07
1.61179e-09
1.07844e-07
1.31046e-09
1.07575e-07
9.5332e-10
1.07332e-07