/*--------------------------------*- C++ -*----------------------------------*\
  =========                 |
  \\      /  F ield         | OpenFOAM: The Open Source CFD Toolbox
   \\    /   O peration     | Website:  https://openfoam.org
    \\  /    A nd           | Version:  7
     \\/     M anipulation  |
\*---------------------------------------------------------------------------*/
FoamFile
{
    version     2.0;
    format      ascii;
    class       surfaceScalarField;
    location    "0.01";
    object      phi.particles;
}
// * * * * * * * * * * * * * * * * * * * * * * * * * * * * * * * * * * * * * //

dimensions      [0 3 -1 0 0 0 0];

internalField   nonuniform List<scalar> 
21139
(
5.50145e-08
2.56872e-06
4.75057e-08
2.56453e-06
2.8193e-08
2.53548e-06
5.57723e-09
2.50221e-06
-1.79717e-08
2.54241e-06
-1.78343e-08
2.60106e-06
-4.6918e-09
2.6129e-06
6.40796e-09
2.61512e-06
3.21779e-09
2.61312e-06
1.08216e-09
2.6143e-06
-1.47322e-10
2.61198e-06
1.6417e-11
2.61099e-06
-4.30403e-09
2.60881e-06
-5.08692e-09
2.6112e-06
-6.687e-09
2.61128e-06
-1.01509e-08
2.60975e-06
-9.5299e-09
2.61186e-06
-9.43896e-09
2.61319e-06
-1.17671e-08
2.61193e-06
-1.20869e-08
2.60762e-06
-9.21245e-09
2.59695e-06
-7.8523e-09
2.58545e-06
-1.14944e-08
2.57993e-06
-1.79808e-09
2.5739e-06
-1.03356e-08
2.56434e-06
2.55831e-06
-9.68456e-09
2.62435e-06
3.65696e-08
2.65324e-06
9.85095e-09
2.61291e-06
3.4695e-08
2.59848e-06
2.68528e-08
2.58659e-06
-4.02196e-09
2.55917e-06
7.62577e-10
2.56449e-06
6.47647e-09
2.57117e-06
1.46241e-09
2.57057e-06
-1.59833e-09
2.56859e-06
-1.4024e-09
2.56739e-06
-1.03561e-09
2.56724e-06
-3.57531e-09
2.56719e-06
-5.74221e-09
2.56685e-06
-7.80299e-09
2.56655e-06
-8.99301e-09
2.56647e-06
-8.30338e-09
2.56615e-06
-1.02874e-08
2.56718e-06
-1.70328e-08
2.57049e-06
-2.25804e-08
2.57858e-06
-1.92075e-08
2.58596e-06
-1.38504e-08
2.58427e-06
-2.09974e-08
2.58632e-06
-7.82797e-09
2.59438e-06
2.86875e-08
2.58487e-06
2.5729e-06
-7.98626e-09
2.57877e-06
-3.57194e-09
2.63447e-06
-7.77147e-09
2.62215e-06
1.90359e-08
2.61734e-06
3.42217e-09
2.62313e-06
2.48139e-09
2.61509e-06
7.04701e-09
2.61674e-06
4.5817e-09
2.61816e-06
-2.36049e-10
2.61565e-06
-1.24417e-09
2.6136e-06
-7.11968e-10
2.61402e-06
-1.47063e-09
2.6157e-06
-4.25925e-09
2.61408e-06
-7.03567e-09
2.61335e-06
-8.53303e-09
2.61537e-06
-8.24837e-09
2.61482e-06
-6.98915e-09
2.61311e-06
-6.75896e-09
2.60863e-06
-9.45659e-09
2.60173e-06
-1.58483e-08
2.59981e-06
-2.05008e-08
2.60363e-06
-1.50718e-08
2.60296e-06
-1.61075e-08
2.603e-06
-1.732e-08
2.60176e-06
1.52408e-08
2.5924e-06
2.57017e-06
3.83341e-08
2.52532e-06
-7.25133e-09
2.53307e-06
-1.46447e-08
2.55757e-06
2.71526e-08
2.57177e-06
-2.97855e-09
2.53872e-06
3.63089e-09
2.54432e-06
6.42103e-09
2.54841e-06
1.5816e-09
2.54577e-06
-5.32436e-10
2.54295e-06
-8.06349e-11
2.54286e-06
-1.61855e-10
2.54368e-06
-2.04676e-09
2.543e-06
-5.09576e-09
2.54171e-06
-7.6505e-09
2.54068e-06
-8.34052e-09
2.54208e-06
-8.82557e-09
2.54521e-06
-1.12455e-08
2.54903e-06
-1.38206e-08
2.55234e-06
-1.1845e-08
2.55091e-06
-1.19839e-08
2.54449e-06
-2.0854e-08
2.54109e-06
-1.70542e-08
2.54291e-06
-1.7126e-08
2.54549e-06
-2.60508e-08
2.55785e-06
-4.31871e-09
2.55786e-06
2.54201e-06
4.55943e-08
2.53069e-06
1.49788e-08
2.49674e-06
-1.18923e-09
2.49773e-06
-4.16739e-09
2.5191e-06
4.13861e-09
2.51189e-06
7.10386e-09
2.5155e-06
2.49766e-09
2.51421e-06
-2.19298e-10
2.51028e-06
4.32714e-10
2.5096e-06
9.88367e-10
2.51105e-06
-4.63178e-10
2.51219e-06
-3.36469e-09
2.51041e-06
-6.00757e-09
2.50874e-06
-6.84126e-09
2.50764e-06
-5.3765e-09
2.50578e-06
-4.72755e-09
2.50358e-06
-8.74558e-09
2.5028e-06
-1.60279e-08
2.50851e-06
-1.72688e-08
2.517e-06
-1.40926e-08
2.52189e-06
-1.82414e-08
2.51765e-06
-1.48454e-08
2.51719e-06
-6.17831e-09
2.504e-06
-2.78729e-08
2.50186e-06
-1.85486e-08
2.50909e-06
2.50476e-06
1.56305e-08
2.48544e-06
1.13419e-08
2.49717e-06
2.04721e-08
2.48558e-06
-1.04292e-08
2.46165e-06
7.8951e-09
2.48072e-06
5.10663e-09
2.48071e-06
-4.64482e-10
2.47458e-06
2.18056e-10
2.47376e-06
1.92544e-09
2.47565e-06
1.40342e-09
2.47679e-06
-1.42004e-09
2.47731e-06
-5.00329e-09
2.47521e-06
-7.88437e-09
2.47567e-06
-8.60452e-09
2.47749e-06
-7.08047e-09
2.47774e-06
-5.04655e-09
2.47433e-06
-4.62411e-09
2.46449e-06
-7.26527e-09
2.45499e-06
-1.33701e-08
2.4519e-06
-1.60855e-08
2.45325e-06
-2.00267e-08
2.45695e-06
-2.83442e-08
2.46635e-06
-9.97968e-09
2.46402e-06
-2.15639e-08
2.45886e-06
-2.1799e-08
2.46423e-06
2.46195e-06
2.51892e-08
2.39023e-06
2.35609e-09
2.3881e-06
-4.08325e-09
2.39877e-06
7.63289e-09
2.39441e-06
7.38016e-09
2.39938e-06
-4.30115e-10
2.39302e-06
-9.88515e-10
2.39076e-06
1.83765e-09
2.39296e-06
2.52828e-09
2.39391e-06
5.81279e-10
2.39201e-06
-2.04001e-09
2.3903e-06
-4.68677e-09
2.3892e-06
-6.77723e-09
2.38938e-06
-8.33239e-09
2.39275e-06
-1.07119e-08
2.39929e-06
-1.42503e-08
2.40734e-06
-1.47664e-08
2.41396e-06
-1.10125e-08
2.41636e-06
-1.34099e-08
2.41692e-06
-1.10862e-08
2.41474e-06
-1.14591e-08
2.40757e-06
-2.98523e-08
2.41548e-06
-1.38289e-08
2.4219e-06
-1.88192e-08
2.41605e-06
-2.3137e-08
2.41692e-06
2.41631e-06
1.98348e-08
2.40486e-06
1.56717e-08
2.39192e-06
-1.04187e-08
2.37365e-06
1.23579e-08
2.40116e-06
1.11454e-09
2.39119e-06
-2.47599e-09
2.38577e-06
1.37402e-09
2.39004e-06
3.2956e-09
2.39409e-06
1.71679e-09
2.39376e-06
-1.32074e-09
2.39358e-06
-3.51567e-09
2.39081e-06
-4.35956e-09
2.38811e-06
-3.64837e-09
2.38475e-06
-2.00967e-09
2.37859e-06
-2.77762e-09
2.37267e-06
-7.87434e-09
2.36965e-06
-1.20071e-08
2.37106e-06
-1.00569e-08
2.36995e-06
-1.49794e-08
2.36746e-06
-1.68705e-08
2.3749e-06
-4.89774e-09
2.37341e-06
-2.47553e-08
2.37208e-06
-1.73356e-08
2.37486e-06
-1.95045e-08
2.36991e-06
-2.39913e-08
2.37027e-06
2.37196e-06
9.2105e-09
2.32474e-06
3.47194e-10
2.33179e-06
1.13029e-08
2.32525e-06
2.84001e-09
2.3299e-06
-3.49579e-09
2.32044e-06
1.16822e-09
2.32376e-06
4.59638e-09
2.32892e-06
3.06043e-09
2.3292e-06
-4.8608e-10
2.32716e-06
-3.49636e-09
2.32739e-06
-5.77513e-09
2.32922e-06
-7.73291e-09
2.33204e-06
-8.18721e-09
2.3354e-06
-6.34878e-09
2.33382e-06
-5.14949e-09
2.32973e-06
-7.52683e-09
2.32419e-06
-1.23271e-08
2.3265e-06
-1.19984e-08
2.33375e-06
-7.33201e-09
2.33144e-06
-1.86286e-08
2.3289e-06
-6.60047e-09
2.3286e-06
-2.34885e-08
2.32524e-06
-2.11013e-08
2.32787e-06
-2.00617e-08
2.32624e-06
-2.30535e-08
2.32754e-06
2.32936e-06
2.0862e-08
2.27867e-06
-7.18751e-09
2.26915e-06
1.36241e-08
2.29131e-06
-4.97584e-09
2.27422e-06
-9.33045e-10
2.27489e-06
5.60374e-09
2.28216e-06
4.93163e-09
2.28309e-06
1.18438e-09
2.27909e-06
-1.01132e-09
2.27445e-06
-1.73506e-09
2.27435e-06
-3.04869e-09
2.27578e-06
-5.61279e-09
2.27847e-06
-8.48522e-09
2.28377e-06
-1.00969e-08
2.28908e-06
-9.64525e-09
2.29199e-06
-5.73994e-09
2.28752e-06
-5.15114e-09
2.28013e-06
-1.46033e-08
2.28099e-06
-1.00402e-08
2.28568e-06
-2.0056e-08
2.28356e-06
-1.01156e-08
2.28419e-06
-2.1522e-08
2.28252e-06
-2.17491e-08
2.28602e-06
-1.95393e-08
2.28605e-06
-2.14519e-08
2.28739e-06
2.28741e-06
1.24672e-08
2.25721e-06
1.393e-08
2.25421e-06
-1.86717e-09
2.25408e-06
-3.26286e-09
2.24803e-06
5.53021e-09
2.2573e-06
5.84357e-09
2.26034e-06
9.93415e-10
2.25733e-06
-2.79164e-09
2.25393e-06
-1.68726e-09
2.25102e-06
-3.47878e-10
2.25071e-06
-2.51842e-10
2.24799e-06
-3.71545e-10
2.24265e-06
-3.01714e-09
2.23992e-06
-8.03098e-09
2.23878e-06
-1.37604e-08
2.24117e-06
-1.25334e-08
2.24431e-06
-4.46693e-09
2.24122e-06
-1.02782e-08
2.2367e-06
-1.15759e-08
2.24203e-06
-1.9563e-08
2.24492e-06
-1.15128e-08
2.24746e-06
-1.81236e-08
2.2447e-06
-2.04405e-08
2.24563e-06
-2.01282e-08
2.24506e-06
-2.10109e-08
2.24572e-06
2.24547e-06
4.57987e-09
2.19349e-06
1.42718e-08
2.21011e-06
-7.15874e-09
2.19038e-06
5.67304e-09
2.20072e-06
8.66352e-09
2.20686e-06
2.87028e-09
2.2029e-06
-2.46999e-09
2.19949e-06
-4.19716e-09
2.2005e-06
-3.34398e-09
2.20233e-06
-2.77365e-09
2.20604e-06
-3.62262e-09
2.20712e-06
-4.56322e-09
2.20559e-06
-4.12415e-09
2.20145e-06
-5.66468e-09
2.19913e-06
-1.04264e-08
2.19837e-06
-1.3964e-08
2.20419e-06
-9.29652e-09
2.20846e-06
-5.40516e-09
2.20629e-06
-9.79087e-09
2.20455e-06
-1.8452e-08
2.20718e-06
-1.36509e-08
2.20885e-06
-1.68117e-08
2.20461e-06
-1.98068e-08
2.20316e-06
-2.07995e-08
2.20354e-06
-2.08335e-08
2.20386e-06
2.20437e-06
1.78177e-08
2.16019e-06
-2.39028e-09
2.16241e-06
3.32492e-09
2.16022e-06
1.07454e-08
2.16961e-06
4.47894e-09
2.16511e-06
-1.08515e-09
2.15849e-06
-2.1382e-09
2.15613e-06
-4.23223e-10
2.1575e-06
-4.43594e-10
2.15886e-06
-1.70557e-09
2.16213e-06
-5.46937e-09
2.16567e-06
-9.12739e-09
2.1692e-06
-7.22333e-09
2.16678e-06
-5.12935e-09
2.16641e-06
-5.30901e-09
2.16444e-06
-8.38924e-09
2.16711e-06
-1.30804e-08
2.16871e-06
-5.74838e-09
2.16899e-06
-9.49458e-09
2.16455e-06
-1.83067e-08
2.16351e-06
-1.63376e-08
2.16511e-06
-1.75617e-08
2.16259e-06
-1.9787e-08
2.16169e-06
-2.00471e-08
2.16377e-06
-2.00041e-08
2.16348e-06
2.16362e-06
2.25039e-08
2.14319e-06
-3.30771e-09
2.12686e-06
1.25284e-08
2.142e-06
5.16597e-09
2.14023e-06
-3.87607e-09
2.13159e-06
-4.06152e-09
2.12828e-06
-1.43149e-09
2.1292e-06
1.97129e-09
2.12901e-06
3.63756e-09
2.12657e-06
1.37472e-09
2.12409e-06
-4.39843e-09
2.12366e-06
-8.62114e-09
2.12611e-06
-8.64835e-09
2.12599e-06
-6.49587e-09
2.12561e-06
-3.72747e-09
2.12391e-06
-4.14177e-09
2.12322e-06
-1.4611e-08
2.12229e-06
-9.1678e-09
2.12353e-06
-1.04755e-08
2.1209e-06
-1.71916e-08
2.1185e-06
-1.72276e-08
2.12039e-06
-1.78443e-08
2.12061e-06
-1.90164e-08
2.12063e-06
-1.92641e-08
2.12217e-06
-1.97528e-08
2.12194e-06
2.12146e-06
9.27912e-09
2.08026e-06
1.11573e-08
2.07955e-06
9.52012e-09
2.08497e-06
-3.62267e-09
2.07411e-06
-6.81423e-09
2.07142e-06
-4.51701e-09
2.07445e-06
-1.5655e-09
2.08005e-06
1.0193e-09
2.08124e-06
2.24322e-09
2.07772e-06
6.2416e-10
2.07248e-06
-3.37204e-09
2.06897e-06
-7.39243e-09
2.06922e-06
-9.43165e-09
2.0726e-06
-9.0502e-09
2.07531e-06
-5.24568e-09
2.07472e-06
-3.28186e-09
2.07343e-06
-1.45703e-08
2.07393e-06
-1.27353e-08
2.07696e-06
-1.2621e-08
2.07679e-06
-1.53885e-08
2.07439e-06
-1.68176e-08
2.07709e-06
-1.75581e-08
2.07787e-06
-1.84453e-08
2.07752e-06
-1.92958e-08
2.07743e-06
-2.0412e-08
2.07744e-06
2.07747e-06
8.95097e-09
2.01767e-06
1.50094e-08
2.02915e-06
-9.66473e-10
2.01758e-06
-5.22096e-09
2.01067e-06
-1.75775e-09
2.01434e-06
-9.63113e-10
2.01939e-06
-8.66991e-10
2.02372e-06
-1.63587e-09
2.02587e-06
-2.52778e-09
2.02481e-06
-2.94754e-09
2.02242e-06
-3.07007e-09
2.0202e-06
-4.14176e-09
2.02036e-06
-6.99015e-09
2.0242e-06
-9.37965e-09
2.02919e-06
-6.09268e-09
2.03093e-06
-2.95077e-09
2.03026e-06
-1.19983e-08
2.02982e-06
-1.29046e-08
2.03219e-06
-1.26348e-08
2.0326e-06
-1.56532e-08
2.03023e-06
-1.70824e-08
2.03215e-06
-1.77697e-08
2.03238e-06
-1.89652e-08
2.03187e-06
-2.02514e-08
2.03163e-06
-2.14222e-08
2.03169e-06
2.03298e-06
1.976e-08
1.98804e-06
2.75957e-09
1.98822e-06
-8.17768e-09
1.97616e-06
-1.61879e-09
1.97911e-06
3.03006e-09
1.98373e-06
2.82049e-09
1.98437e-06
5.98796e-10
1.98404e-06
-1.82546e-09
1.9842e-06
-3.57859e-09
1.98369e-06
-4.28621e-09
1.98498e-06
-2.85654e-09
1.98573e-06
-6.17638e-10
1.9856e-06
-2.18945e-09
1.98689e-06
-7.21059e-09
1.99011e-06
-6.57938e-09
1.99184e-06
-4.09527e-09
1.98952e-06
-1.05118e-08
1.98707e-06
-1.29529e-08
1.9874e-06
-1.32195e-08
1.98643e-06
-1.69257e-08
1.98473e-06
-1.80499e-08
1.98559e-06
-1.87165e-08
1.98622e-06
-1.9703e-08
1.98676e-06
-2.08174e-08
1.98755e-06
-2.16674e-08
1.98851e-06
1.99045e-06
1.83303e-08
1.95572e-06
-8.30085e-09
1.9432e-06
-5.34114e-09
1.9453e-06
2.22311e-09
1.95406e-06
3.05577e-09
1.95559e-06
1.40254e-09
1.95236e-06
-2.23117e-10
1.94995e-06
-5.20408e-10
1.94679e-06
-1.42513e-09
1.94567e-06
-3.35437e-09
1.94759e-06
-3.10135e-09
1.94962e-06
4.20022e-10
1.95024e-06
5.27563e-10
1.94914e-06
-5.06454e-09
1.94936e-06
-8.21075e-09
1.95053e-06
-7.24183e-09
1.9456e-06
-1.13249e-08
1.94262e-06
-1.41626e-08
1.94222e-06
-1.49352e-08
1.94159e-06
-1.65982e-08
1.94167e-06
-1.77235e-08
1.94299e-06
-1.85298e-08
1.9442e-06
-1.93001e-08
1.9456e-06
-2.01693e-08
1.94717e-06
-2.08108e-08
1.94848e-06
1.95021e-06
4.88684e-09
1.90146e-06
-4.12236e-09
1.89667e-06
4.59563e-09
1.90887e-06
4.65752e-09
1.91456e-06
2.24648e-10
1.91234e-06
-2.57849e-09
1.90909e-06
-2.63257e-09
1.90961e-06
-6.72154e-10
1.90617e-06
-4.21004e-12
1.90556e-06
-2.3644e-09
1.90755e-06
-3.99361e-09
1.90962e-06
-1.76964e-09
1.90975e-06
-6.69305e-10
1.90845e-06
-5.63982e-09
1.90728e-06
-8.6456e-09
1.9091e-06
-9.18932e-09
1.90615e-06
-1.1688e-08
1.90317e-06
-1.39811e-08
1.90253e-06
-1.48178e-08
1.90256e-06
-1.56599e-08
1.90369e-06
-1.6375e-08
1.9053e-06
-1.70797e-08
1.90675e-06
-1.78153e-08
1.90835e-06
-1.89203e-08
1.91035e-06
-1.95253e-08
1.91046e-06
1.91239e-06
6.05917e-10
1.85461e-06
7.39202e-09
1.86205e-06
1.08973e-08
1.86858e-06
4.00102e-09
1.86545e-06
-2.21528e-09
1.86214e-06
-4.86227e-09
1.86245e-06
-2.98483e-09
1.86653e-06
-2.14718e-10
1.86782e-06
1.05519e-09
1.86812e-06
-1.40256e-09
1.8692e-06
-4.88605e-09
1.87062e-06
-4.77392e-09
1.8712e-06
-3.4151e-09
1.87003e-06
-7.13067e-09
1.86889e-06
-8.85792e-09
1.86986e-06
-9.69371e-09
1.87104e-06
-1.10687e-08
1.87072e-06
-1.24893e-08
1.86928e-06
-1.3469e-08
1.86968e-06
-1.42155e-08
1.87031e-06
-1.49192e-08
1.8712e-06
-1.56611e-08
1.87229e-06
-1.65549e-08
1.87312e-06
-1.76076e-08
1.87358e-06
-1.87707e-08
1.87246e-06
1.87363e-06
1.0359e-08
1.83149e-06
1.32574e-08
1.83876e-06
8.61491e-09
1.83412e-06
1.29559e-09
1.82706e-06
-1.85485e-09
1.82585e-06
-2.81265e-09
1.83004e-06
-2.74625e-11
1.83585e-06
1.46029e-09
1.84085e-06
2.31442e-09
1.84003e-06
-3.54373e-10
1.8391e-06
-5.22751e-09
1.83941e-06
-6.69853e-09
1.83947e-06
-5.32556e-09
1.83821e-06
-7.42351e-09
1.83717e-06
-9.36169e-09
1.83785e-06
-9.45359e-09
1.8392e-06
-1.01652e-08
1.84183e-06
-1.12794e-08
1.83852e-06
-1.22405e-08
1.83768e-06
-1.31012e-08
1.83697e-06
-1.40256e-08
1.83643e-06
-1.49804e-08
1.83613e-06
-1.61535e-08
1.83566e-06
-1.71187e-08
1.83455e-06
-1.85792e-08
1.83349e-06
1.83403e-06
2.13667e-08
1.81356e-06
9.74528e-09
1.80964e-06
2.88581e-09
1.80242e-06
5.16356e-10
1.79972e-06
2.25281e-09
1.80146e-06
3.57163e-09
1.8062e-06
2.7484e-09
1.81052e-06
1.51629e-09
1.81405e-06
8.38386e-10
1.81105e-06
-1.70694e-09
1.80799e-06
-6.38438e-09
1.80644e-06
-8.77042e-09
1.80593e-06
-6.37274e-09
1.80485e-06
-7.64658e-09
1.80394e-06
-9.30817e-09
1.80349e-06
-9.63338e-09
1.80392e-06
-1.02592e-08
1.805e-06
-1.12666e-08
1.80255e-06
-1.22667e-08
1.80136e-06
-1.32037e-08
1.79976e-06
-1.43136e-08
1.79878e-06
-1.53153e-08
1.79821e-06
-1.64223e-08
1.79633e-06
-1.74935e-08
1.79531e-06
-1.8621e-08
1.79465e-06
1.7956e-06
2.16494e-08
1.77473e-06
3.43228e-09
1.765e-06
2.39134e-10
1.76446e-06
2.18369e-09
1.76828e-06
6.72145e-09
1.77168e-06
8.45233e-09
1.77388e-06
3.55229e-09
1.77434e-06
-5.48139e-10
1.77548e-06
-2.86954e-09
1.77105e-06
-4.50412e-09
1.76722e-06
-7.34438e-09
1.76453e-06
-9.17728e-09
1.7634e-06
-8.86405e-09
1.76261e-06
-9.14501e-09
1.7626e-06
-1.01703e-08
1.76181e-06
-1.08326e-08
1.76131e-06
-1.15604e-08
1.76064e-06
-1.2377e-08
1.76003e-06
-1.32565e-08
1.75965e-06
-1.41619e-08
1.75827e-06
-1.51253e-08
1.75766e-06
-1.60637e-08
1.75736e-06
-1.70905e-08
1.7559e-06
-1.80122e-08
1.7553e-06
-1.89156e-08
1.75496e-06
1.75593e-06
1.32694e-08
1.71357e-06
2.80678e-09
1.70978e-06
2.19405e-09
1.71665e-06
4.8251e-09
1.72323e-06
8.34318e-09
1.7265e-06
8.30963e-09
1.72642e-06
3.03218e-09
1.72443e-06
-2.88654e-09
1.72386e-06
-5.94489e-09
1.72028e-06
-6.98896e-09
1.71715e-06
-8.32603e-09
1.7155e-06
-9.17765e-09
1.71483e-06
-1.0707e-08
1.71485e-06
-1.05096e-08
1.71567e-06
-1.12242e-08
1.71591e-06
-1.20725e-08
1.71591e-06
-1.29294e-08
1.71564e-06
-1.37879e-08
1.71529e-06
-1.45373e-08
1.71504e-06
-1.54403e-08
1.7143e-06
-1.62762e-08
1.71384e-06
-1.72245e-08
1.71326e-06
-1.80644e-08
1.71298e-06
-1.87949e-08
1.71277e-06
-1.96365e-08
1.71246e-06
1.71335e-06
1.04901e-08
1.65485e-06
9.82741e-09
1.66047e-06
7.7725e-09
1.66728e-06
7.7125e-09
1.67108e-06
7.86516e-09
1.67184e-06
5.7982e-09
1.6698e-06
6.47669e-10
1.66673e-06
-4.60198e-09
1.66546e-06
-7.59332e-09
1.66572e-06
-8.26398e-09
1.66444e-06
-8.90393e-09
1.6645e-06
-9.55869e-09
1.66536e-06
-1.01566e-08
1.66668e-06
-1.06102e-08
1.66797e-06
-1.16241e-08
1.66875e-06
-1.2763e-08
1.66915e-06
-1.37828e-08
1.66934e-06
-1.47628e-08
1.66936e-06
-1.56005e-08
1.66931e-06
-1.6508e-08
1.66921e-06
-1.7359e-08
1.66898e-06
-1.83107e-08
1.66866e-06
-1.91115e-08
1.66834e-06
-1.98683e-08
1.6679e-06
-2.08198e-08
1.6672e-06
1.66809e-06
1.59616e-08
1.61474e-06
1.52627e-08
1.62363e-06
1.09554e-08
1.62448e-06
8.01581e-09
1.62305e-06
5.37259e-09
1.62028e-06
2.17132e-09
1.61654e-06
-1.83801e-09
1.61344e-06
-5.35709e-09
1.61257e-06
-6.96116e-09
1.61502e-06
-6.70179e-09
1.61673e-06
-7.35824e-09
1.62007e-06
-7.8949e-09
1.61923e-06
-8.73523e-09
1.62013e-06
-9.83989e-09
1.62113e-06
-1.13312e-08
1.62176e-06
-1.27514e-08
1.62189e-06
-1.39802e-08
1.62204e-06
-1.50429e-08
1.62218e-06
-1.60396e-08
1.62234e-06
-1.70734e-08
1.62244e-06
-1.80499e-08
1.62226e-06
-1.90043e-08
1.62196e-06
-1.99041e-08
1.62159e-06
-2.08881e-08
1.621e-06
-2.19853e-08
1.62026e-06
1.62117e-06
2.26365e-08
1.58391e-06
1.42512e-08
1.58645e-06
9.33777e-09
1.58142e-06
5.03624e-09
1.57934e-06
1.29578e-09
1.57386e-06
-1.45139e-09
1.56953e-06
-3.37073e-09
1.56749e-06
-4.7185e-09
1.56758e-06
-4.89197e-09
1.56948e-06
-4.23458e-09
1.57242e-06
-4.35835e-09
1.57727e-06
-5.12603e-09
1.57504e-06
-6.5265e-09
1.5758e-06
-8.3101e-09
1.58013e-06
-1.05048e-08
1.57676e-06
-1.20877e-08
1.57513e-06
-1.34675e-08
1.57454e-06
-1.46086e-08
1.57429e-06
-1.57478e-08
1.57463e-06
-1.70977e-08
1.5752e-06
-1.82177e-08
1.57484e-06
-1.92447e-08
1.5746e-06
-2.03206e-08
1.57439e-06
-2.15239e-08
1.574e-06
-2.27314e-08
1.57377e-06
1.5747e-06
2.27048e-08
1.54407e-06
6.93906e-09
1.53457e-06
3.9456e-09
1.52976e-06
1.78265e-09
1.52978e-06
-2.26005e-09
1.53073e-06
-3.52206e-09
1.52413e-06
-3.53646e-09
1.52385e-06
-3.10683e-09
1.52485e-06
-2.60673e-09
1.52651e-06
-2.25007e-09
1.52802e-06
-2.06603e-09
1.52986e-06
-3.23822e-09
1.5283e-06
-5.15292e-09
1.52904e-06
-7.28395e-09
1.53332e-06
-9.29111e-09
1.52973e-06
-1.10739e-08
1.52814e-06
-1.25815e-08
1.52801e-06
-1.37629e-08
1.52941e-06
-1.48737e-08
1.52898e-06
-1.67595e-08
1.53072e-06
-1.7893e-08
1.52925e-06
-1.89626e-08
1.52896e-06
-2.01676e-08
1.52906e-06
-2.12369e-08
1.52859e-06
-2.24174e-08
1.52879e-06
1.53088e-06
1.69017e-08
1.48899e-06
2.07134e-10
1.47306e-06
-6.91534e-10
1.47301e-06
-5.97944e-10
1.4746e-06
-2.26176e-09
1.48209e-06
-3.05311e-09
1.47792e-06
-2.27988e-09
1.47791e-06
-1.30539e-09
1.47892e-06
-8.33916e-10
1.48002e-06
-9.94163e-10
1.48053e-06
-1.63979e-09
1.48087e-06
-3.45775e-09
1.47936e-06
-5.58046e-09
1.47904e-06
-7.51363e-09
1.47888e-06
-8.89686e-09
1.479e-06
-1.05125e-08
1.47921e-06
-1.19147e-08
1.48004e-06
-1.31588e-08
1.48229e-06
-1.42497e-08
1.48239e-06
-1.52442e-08
1.48458e-06
-1.63467e-08
1.48412e-06
-1.7618e-08
1.48493e-06
-1.91032e-08
1.4862e-06
-2.02343e-08
1.48729e-06
-2.16705e-08
1.48655e-06
1.48978e-06
9.25522e-09
1.42699e-06
-1.70194e-09
1.41706e-06
-1.07733e-09
1.42107e-06
-8.98644e-10
1.42548e-06
6.19123e-11
1.43162e-06
-1.19316e-09
1.43501e-06
-6.59208e-10
1.43299e-06
-1.42888e-10
1.43325e-06
-2.65909e-10
1.43345e-06
-1.05684e-09
1.43323e-06
-2.22319e-09
1.43266e-06
-4.11641e-09
1.43179e-06
-6.00746e-09
1.43123e-06
-7.6236e-09
1.43104e-06
-8.9008e-09
1.43127e-06
-1.00611e-08
1.43188e-06
-1.11132e-08
1.43289e-06
-1.22085e-08
1.43422e-06
-1.32155e-08
1.4358e-06
-1.33367e-08
1.43753e-06
-1.43789e-08
1.43918e-06
-1.57228e-08
1.44112e-06
-1.72142e-08
1.44307e-06
-1.88817e-08
1.44526e-06
-2.06684e-08
1.44501e-06
1.4484e-06
3.1319e-09
1.37616e-06
2.23462e-11
1.37559e-06
1.48613e-09
1.38183e-06
1.65024e-09
1.38663e-06
2.08578e-09
1.39149e-06
1.06642e-09
1.39812e-06
1.06348e-09
1.39355e-06
8.13357e-10
1.39271e-06
2.57266e-11
1.39199e-06
-1.30826e-09
1.3912e-06
-2.89068e-09
1.39039e-06
-4.5689e-09
1.38969e-06
-6.11383e-09
1.38936e-06
-7.34067e-09
1.38951e-06
-8.29724e-09
1.3901e-06
-9.0957e-09
1.39106e-06
-9.84172e-09
1.39232e-06
-1.05975e-08
1.39381e-06
-1.13737e-08
1.39539e-06
-1.20963e-08
1.39696e-06
-1.31852e-08
1.39855e-06
-1.45582e-08
1.40011e-06
-1.60026e-08
1.40148e-06
-1.78797e-08
1.40264e-06
-1.95479e-08
1.40366e-06
1.40672e-06
3.57715e-09
1.3463e-06
4.02883e-09
1.35075e-06
4.75454e-09
1.35688e-06
4.00457e-09
1.35974e-06
3.61344e-09
1.36226e-06
2.53202e-09
1.36857e-06
1.99843e-09
1.3617e-06
1.08086e-09
1.35978e-06
-1.65566e-10
1.35824e-06
-1.72321e-09
1.35693e-06
-3.30896e-09
1.35593e-06
-4.75974e-09
1.35531e-06
-5.92879e-09
1.35516e-06
-6.77302e-09
1.35546e-06
-7.40188e-09
1.35612e-06
-7.91581e-09
1.35705e-06
-8.45012e-09
1.35814e-06
-9.06277e-09
1.35931e-06
-9.8009e-09
1.36049e-06
-1.07219e-08
1.3616e-06
-1.18927e-08
1.36256e-06
-1.33565e-08
1.36338e-06
-1.49181e-08
1.36409e-06
-1.68112e-08
1.36463e-06
-1.86101e-08
1.36518e-06
1.36741e-06
9.0811e-09
1.32789e-06
8.10774e-09
1.33322e-06
6.41601e-09
1.33607e-06
4.64479e-09
1.33647e-06
3.4007e-09
1.33656e-06
2.70051e-09
1.3402e-06
1.72184e-09
1.33316e-06
4.53692e-10
1.33061e-06
-8.99526e-10
1.32852e-06
-2.36489e-09
1.32704e-06
-3.71847e-09
1.32605e-06
-4.81979e-09
1.32544e-06
-5.61864e-09
1.32523e-06
-6.15435e-09
1.32536e-06
-6.55484e-09
1.32571e-06
-6.93004e-09
1.3262e-06
-7.38483e-09
1.32671e-06
-7.99293e-09
1.32718e-06
-8.78989e-09
1.32754e-06
-9.83598e-09
1.32776e-06
-1.1131e-08
1.32784e-06
-1.26805e-08
1.32781e-06
-1.43858e-08
1.32774e-06
-1.62588e-08
1.3276e-06
-1.81551e-08
1.32748e-06
1.32893e-06
1.53333e-08
1.30839e-06
9.32606e-09
1.31197e-06
5.96707e-09
1.31173e-06
3.3814e-09
1.30936e-06
1.75551e-09
1.30781e-06
1.61929e-09
1.30808e-06
4.48931e-10
1.30347e-06
-9.14275e-10
1.30137e-06
-1.94587e-09
1.29975e-06
-3.10906e-09
1.29823e-06
-4.2018e-09
1.29695e-06
-4.98991e-09
1.29607e-06
-5.5074e-09
1.29554e-06
-5.85255e-09
1.29522e-06
-6.14545e-09
1.29501e-06
-6.50289e-09
1.29481e-06
-7.00358e-09
1.29454e-06
-7.71082e-09
1.29417e-06
-8.64371e-09
1.29368e-06
-9.81944e-09
1.29305e-06
-1.12172e-08
1.29232e-06
-1.27873e-08
1.29155e-06
-1.45511e-08
1.29083e-06
-1.64035e-08
1.29017e-06
-1.81535e-08
1.28958e-06
1.29035e-06
2.00289e-08
1.27469e-06
8.10715e-09
1.27347e-06
3.15835e-09
1.27061e-06
8.59199e-10
1.26832e-06
-1.65639e-10
1.26729e-06
6.49612e-11
1.26616e-06
-9.35892e-10
1.26435e-06
-2.20426e-09
1.26326e-06
-3.47829e-09
1.26237e-06
-4.48554e-09
1.26163e-06
-5.18938e-09
1.261e-06
-5.65429e-09
1.26052e-06
-5.95669e-09
1.26016e-06
-6.19941e-09
1.25983e-06
-6.48177e-09
1.25943e-06
-6.89856e-09
1.25891e-06
-7.50332e-09
1.25824e-06
-8.33029e-09
1.25742e-06
-9.39072e-09
1.25648e-06
-1.06622e-08
1.25544e-06
-1.21005e-08
1.25437e-06
-1.3622e-08
1.25332e-06
-1.53003e-08
1.25237e-06
-1.70863e-08
1.25156e-06
-1.85564e-08
1.25101e-06
1.25139e-06
1.91866e-08
1.22602e-06
4.82497e-09
1.22054e-06
3.35108e-10
1.21744e-06
-7.94472e-10
1.21672e-06
-9.99145e-10
1.21737e-06
-7.35277e-10
1.21686e-06
-1.4815e-09
1.21729e-06
-2.49731e-09
1.21734e-06
-3.92828e-09
1.2173e-06
-4.94638e-09
1.21756e-06
-5.52311e-09
1.21796e-06
-5.91546e-09
1.21829e-06
-6.23042e-09
1.21851e-06
-6.5609e-09
1.21855e-06
-6.98354e-09
1.21838e-06
-7.55979e-09
1.21797e-06
-8.32125e-09
1.21734e-06
-9.27845e-09
1.21653e-06
-1.0434e-08
1.2156e-06
-1.17524e-08
1.21462e-06
-1.31775e-08
1.21366e-06
-1.46197e-08
1.21279e-06
-1.61303e-08
1.21205e-06
-1.76977e-08
1.21148e-06
-1.89798e-08
1.21125e-06
1.21164e-06
1.43627e-08
1.17155e-06
1.75482e-09
1.16596e-06
-3.79176e-10
1.16439e-06
-5.87076e-10
1.16517e-06
-4.01647e-10
1.16647e-06
-6.15315e-10
1.16784e-06
-1.49263e-09
1.16972e-06
-2.58749e-09
1.17087e-06
-3.72747e-09
1.17181e-06
-4.6239e-09
1.17276e-06
-5.26204e-09
1.17368e-06
-5.77052e-09
1.17446e-06
-6.25031e-09
1.17505e-06
-6.78192e-09
1.17541e-06
-7.42159e-09
1.17551e-06
-8.19916e-09
1.17537e-06
-9.12037e-09
1.175e-06
-1.01769e-08
1.17447e-06
-1.13612e-08
1.17385e-06
-1.26417e-08
1.17321e-06
-1.3968e-08
1.17263e-06
-1.52686e-08
1.17216e-06
-1.65776e-08
1.17185e-06
-1.78489e-08
1.1717e-06
-1.89465e-08
1.17177e-06
1.17234e-06
9.31513e-09
1.11944e-06
9.39794e-10
1.11674e-06
6.83887e-10
1.11659e-06
1.13918e-09
1.11822e-06
1.27883e-09
1.12013e-06
4.26573e-10
1.12259e-06
-7.33306e-10
1.12478e-06
-1.93867e-09
1.12636e-06
-3.02932e-09
1.12776e-06
-3.92941e-09
1.12909e-06
-4.67572e-09
1.13034e-06
-5.35936e-09
1.13143e-06
-6.05528e-09
1.13232e-06
-6.81888e-09
1.13297e-06
-7.68628e-09
1.13339e-06
-8.66483e-09
1.13361e-06
-9.7367e-09
1.13366e-06
-1.08755e-08
1.13357e-06
-1.20622e-08
1.13342e-06
-1.3277e-08
1.13327e-06
-1.44886e-08
1.13318e-06
-1.56327e-08
1.13319e-06
-1.67363e-08
1.13331e-06
-1.78315e-08
1.13358e-06
-1.86492e-08
1.13394e-06
1.1345e-06
6.84159e-09
1.07757e-06
2.33157e-09
1.07829e-06
3.06975e-09
1.07898e-06
3.53809e-09
1.08034e-06
3.01606e-09
1.08179e-06
1.65568e-09
1.08412e-06
2.83174e-10
1.08563e-06
-9.7825e-10
1.08686e-06
-2.06919e-09
1.08807e-06
-3.01621e-09
1.0893e-06
-3.88778e-09
1.09049e-06
-4.75305e-09
1.09156e-06
-5.65483e-09
1.09247e-06
-6.62063e-09
1.0932e-06
-7.67097e-09
1.09376e-06
-8.80401e-09
1.09419e-06
-9.98764e-09
1.09451e-06
-1.11792e-08
1.09476e-06
-1.23487e-08
1.09498e-06
-1.34908e-08
1.09521e-06
-1.46022e-08
1.09549e-06
-1.56189e-08
1.09584e-06
-1.65391e-08
1.09626e-06
-1.75558e-08
1.09673e-06
-1.82198e-08
1.09729e-06
1.09746e-06
7.48101e-09
1.0462e-06
4.92431e-09
1.04926e-06
5.25735e-09
1.04991e-06
5.43562e-09
1.04933e-06
3.90491e-09
1.05059e-06
2.33043e-09
1.05148e-06
9.33178e-10
1.05191e-06
-2.59087e-10
1.0524e-06
-1.2914e-09
1.05303e-06
-2.25023e-09
1.05375e-06
-3.20834e-09
1.0545e-06
-4.20863e-09
1.05521e-06
-5.25912e-09
1.05584e-06
-6.36399e-09
1.05638e-06
-7.52899e-09
1.05684e-06
-8.75001e-09
1.05724e-06
-9.99336e-09
1.0576e-06
-1.12044e-08
1.05795e-06
-1.2345e-08
1.05831e-06
-1.34236e-08
1.05869e-06
-1.44596e-08
1.05911e-06
-1.53962e-08
1.05957e-06
-1.62283e-08
1.06008e-06
-1.71674e-08
1.06056e-06
-1.78252e-08
1.06109e-06
1.06091e-06
1.04047e-08
1.02044e-06
7.23452e-09
1.02396e-06
6.71404e-09
1.02255e-06
5.4796e-09
1.02091e-06
3.62478e-09
1.02153e-06
2.14297e-09
1.02104e-06
9.26279e-10
1.02064e-06
-8.4841e-11
1.02046e-06
-1.00051e-09
1.02046e-06
-1.92268e-09
1.02059e-06
-2.90622e-09
1.02078e-06
-3.96914e-09
1.02099e-06
-5.09044e-09
1.0212e-06
-6.25835e-09
1.02141e-06
-7.46625e-09
1.02162e-06
-8.70357e-09
1.02183e-06
-9.94584e-09
1.02208e-06
-1.11385e-08
1.02236e-06
-1.22394e-08
1.02268e-06
-1.3269e-08
1.02305e-06
-1.42507e-08
1.02343e-06
-1.51302e-08
1.02384e-06
-1.59584e-08
1.02429e-06
-1.6848e-08
1.02469e-06
-1.75356e-08
1.02509e-06
1.02469e-06
1.36769e-08
9.93384e-07
8.13761e-09
9.95378e-07
6.58145e-09
9.919e-07
4.1651e-09
9.90826e-07
2.56333e-09
9.89854e-07
1.31855e-09
9.88847e-07
3.57161e-10
9.88086e-07
-4.54002e-10
9.87547e-07
-1.24788e-09
9.8716e-07
-2.11176e-09
9.86872e-07
-3.07437e-09
9.86661e-07
-4.13502e-09
9.86516e-07
-5.25534e-09
9.86438e-07
-6.41006e-09
9.86411e-07
-7.5951e-09
9.86432e-07
-8.7948e-09
9.86513e-07
-9.98785e-09
9.86648e-07
-1.11285e-08
9.86857e-07
-1.21795e-08
9.87134e-07
-1.31725e-08
9.87464e-07
-1.41169e-08
9.87821e-07
-1.49487e-08
9.88184e-07
-1.579e-08
9.88557e-07
-1.66707e-08
9.88885e-07
-1.74154e-08
9.8919e-07
9.88481e-07
1.55476e-08
9.60476e-07
7.57741e-09
9.60089e-07
4.82189e-09
9.5612e-07
2.70671e-09
9.54985e-07
1.27348e-09
9.53695e-07
2.80474e-10
9.52736e-07
-4.67741e-10
9.52051e-07
-1.14021e-09
9.51522e-07
-1.85643e-09
9.51069e-07
-2.67095e-09
9.50667e-07
-3.58985e-09
9.50344e-07
-4.59423e-09
9.50104e-07
-5.66703e-09
9.49966e-07
-6.77091e-09
9.49921e-07
-7.8919e-09
9.49948e-07
-9.01982e-09
9.50047e-07
-1.01355e-08
9.50222e-07
-1.12004e-08
9.50475e-07
-1.2187e-08
9.50799e-07
-1.31406e-08
9.5118e-07
-1.40643e-08
9.51601e-07
-1.48651e-08
9.52026e-07
-1.57116e-08
9.52444e-07
-1.66e-08
9.5281e-07
-1.74018e-08
9.53152e-07
9.5238e-07
1.53144e-08
9.21084e-07
5.95367e-09
9.18956e-07
2.97836e-09
9.15478e-07
1.31635e-09
9.14471e-07
2.00962e-10
9.13615e-07
-5.69438e-10
9.13102e-07
-1.1935e-09
9.12785e-07
-1.81356e-09
9.12534e-07
-2.50943e-09
9.12283e-07
-3.29141e-09
9.12012e-07
-4.17482e-09
9.11671e-07
-5.11381e-09
9.11488e-07
-6.11816e-09
9.11791e-07
-7.16084e-09
9.12003e-07
-8.21133e-09
9.12233e-07
-9.26068e-09
9.12487e-07
-1.02937e-08
9.1278e-07
-1.12777e-08
9.13086e-07
-1.21961e-08
9.13249e-07
-1.31009e-08
9.13983e-07
-1.40037e-08
9.14706e-07
-1.47956e-08
9.15345e-07
-1.5642e-08
9.15943e-07
-1.6537e-08
9.16497e-07
-1.7371e-08
9.1703e-07
9.16531e-07
1.33598e-08
8.7814e-07
4.11779e-09
8.75376e-07
1.67778e-09
8.72818e-07
4.72669e-10
8.72345e-07
-3.36903e-10
8.72097e-07
-9.59024e-10
8.72097e-07
-1.54551e-09
8.72191e-07
-2.17532e-09
8.72257e-07
-2.88863e-09
8.72e-07
-3.6874e-09
8.72537e-07
-4.57571e-09
8.72827e-07
-5.46994e-09
8.73158e-07
-6.38864e-09
8.7393e-07
-7.36832e-09
8.74519e-07
-8.36824e-09
8.75084e-07
-9.36787e-09
8.7564e-07
-1.03514e-08
8.76185e-07
-1.131e-08
8.76709e-07
-1.21749e-08
8.77064e-07
-1.30008e-08
8.78e-07
-1.38543e-08
8.7889e-07
-1.46345e-08
8.79677e-07
-1.54776e-08
8.80408e-07
-1.63593e-08
8.8111e-07
-1.72102e-08
8.81809e-07
8.81629e-07
1.0692e-08
8.36094e-07
2.79188e-09
8.33563e-07
1.09038e-09
8.32086e-07
3.18526e-10
8.32168e-07
-2.65601e-10
8.32411e-07
-8.18177e-10
8.32779e-07
-1.41669e-09
8.3313e-07
-2.10519e-09
8.32777e-07
-2.81999e-09
8.33897e-07
-3.57419e-09
8.35216e-07
-4.39649e-09
8.36302e-07
-5.27649e-09
8.37257e-07
-6.18462e-09
8.38142e-07
-7.12188e-09
8.3899e-07
-8.08122e-09
8.39837e-07
-9.03725e-09
8.40695e-07
-9.96677e-09
8.41561e-07
-1.08524e-08
8.42428e-07
-1.16869e-08
8.43304e-07
-1.25454e-08
8.44171e-07
-1.34197e-08
8.45034e-07
-1.42281e-08
8.45895e-07
-1.50886e-08
8.46735e-07
-1.59539e-08
8.47563e-07
-1.68175e-08
8.4841e-07
8.48483e-07
8.28759e-09
7.98551e-07
2.21204e-09
7.96807e-07
1.18037e-09
7.96319e-07
7.24618e-10
7.96783e-07
2.70816e-10
7.97293e-07
-2.57746e-10
7.97818e-07
-8.89517e-10
7.98195e-07
-1.57139e-09
7.98351e-07
-2.27535e-09
8.00326e-07
-3.07723e-09
8.01588e-07
-3.91758e-09
8.02727e-07
-4.823e-09
8.0379e-07
-5.73974e-09
8.04826e-07
-6.65636e-09
8.05831e-07
-7.58499e-09
8.06815e-07
-8.51473e-09
8.07805e-07
-9.42625e-09
8.0881e-07
-1.02914e-08
8.09817e-07
-1.11177e-08
8.1082e-07
-1.19664e-08
8.11817e-07
-1.2832e-08
8.12811e-07