/*--------------------------------*- C++ -*----------------------------------*\
  =========                 |
  \\      /  F ield         | OpenFOAM: The Open Source CFD Toolbox
   \\    /   O peration     | Website:  https://openfoam.org
    \\  /    A nd           | Version:  7
     \\/     M anipulation  |
\*---------------------------------------------------------------------------*/
FoamFile
{
    version     2.0;
    format      ascii;
    class       volScalarField;
    location    "0.01";
    object      pMean;
}
// * * * * * * * * * * * * * * * * * * * * * * * * * * * * * * * * * * * * * //

dimensions      [1 -1 -2 0 0 0 0];

internalField   nonuniform List<scalar> 
10790
(
12015.3
11982.2
12027.5
12027.7
12018.3
12013.2
12012.4
12014.7
12016
12016.4
12016.2
12015.9
12015.6
12015.7
12016
12016.2
12015.7
12014.4
12012.5
12011.2
12010.8
12010.2
12009.6
12012.9
12022
12030.6
12031.6
11970.5
11977.5
12004.6
12006.6
12001.4
12003
12003.8
12003.3
12003
12003
12002.7
12002.6
12002.8
12003.1
12003.1
12002.4
12001.4
12000.4
11999.8
11999.1
11996.8
11991.1
11983.1
11980.4
12004.6
12025.3
11997.9
11979.8
11985.9
11987
11990.5
11993
11993
11992.3
11992
11991.6
11991.3
11991.3
11991.8
11992.2
11991.8
11990.3
11988.7
11988.2
11988.5
11989.2
11991.6
11993
11985.6
11971.1
11979.9
11973
11969.8
11971.5
11966.2
11959
11964.2
11966.5
11966.4
11966
11965.6
11965
11964.6
11964.9
11965.6
11966.1
11965.6
11964.1
11962.6
11962
11961.2
11959.7
11961.5
11967.3
11970.7
11959.7
11961.8
11951.6
11951.7
11952.6
11949.5
11950.1
11951.8
11952.2
11952.3
11952.2
11951.6
11950.8
11950.7
11951.1
11951.7
11951.7
11950.8
11949.5
11948.7
11948.9
11948.8
11947
11944.6
11943.4
11948.5
11945.2
11945.1
11928.6
11937.2
11929.8
11926.8
11932.4
11932
11931.7
11931.9
11931.6
11930.7
11930.2
11930.4
11931.3
11931.9
11931.5
11930
11928.5
11927.5
11926.5
11926.2
11926.5
11926.1
11925.9
11929.2
11928.5
11927.4
11907.4
11904.8
11903.7
11908.3
11909.1
11908.1
11908.3
11908.4
11907.6
11906.7
11906.4
11906.8
11907.6
11908.2
11908
11907.3
11907.3
11908.5
11909.2
11910.1
11911.3
11909.6
11909.2
11909.6
11909.4
11909.2
11905
11895.2
11897.1
11903.5
11900.9
11900.6
11901
11900.6
11899.8
11899.4
11899.5
11899.7
11899.8
11899.3
11897.9
11895.8
11894.2
11893.4
11891.8
11891
11893.4
11891.1
11890.7
11890.3
11890.9
11891.7
11875.2
11875.1
11879.5
11877.6
11876.1
11876.6
11876.4
11875.6
11875.3
11875.6
11876.2
11876.8
11877.2
11877.1
11876.3
11875.4
11874.8
11874.7
11874
11871.2
11872.8
11871.8
11872.8
11873.3
11874
11874.7
11852.5
11857
11859.8
11854.5
11854.9
11855.1
11854.3
11854
11854.3
11854.4
11854.3
11854.3
11854.6
11854.9
11855.1
11855.4
11855.5
11854.7
11855.1
11854.1
11855.4
11855.1
11856.5
11857
11857.1
11857.1
11845.6
11849
11843.9
11842.7
11843.4
11842.7
11842.6
11843.5
11844.5
11844.1
11842.6
11841.1
11840
11839.1
11838.5
11838.9
11840.2
11839.7
11839
11838.8
11839.6
11838.7
11839
11838.9
11838.5
11838.1
11830.2
11829.8
11823.7
11825.5
11824.9
11824.3
11825.3
11827
11828.1
11827.8
11826.6
11825.6
11825.2
11824.8
11823.9
11823.1
11823.6
11823.8
11821.7
11820.9
11821
11819.8
11819.5
11819.2
11818.9
11818.6
11808.4
11802.7
11803.5
11804.1
11802.8
11803.3
11804.8
11805.8
11805.5
11804.5
11803.6
11803.6
11804.5
11805
11804.6
11803.3
11802.2
11802.8
11800.6
11799.9
11800.1
11799.5
11799.3
11799.3
11799.2
11799
11783
11778.6
11782.3
11781.1
11781.3
11783.1
11784.3
11784
11782.3
11780.1
11778.6
11778.8
11780.2
11781.3
11781.5
11780.6
11779.4
11780.5
11779.3
11779
11779.6
11779.6
11779.6
11779.7
11779.6
11779.6
11756.9
11759.7
11760.2
11759.3
11760.9
11762.5
11763
11762.4
11761
11759
11757.4
11757.1
11758.3
11759.7
11760.4
11759.8
11758.9
11760.3
11760.2
11760.3
11760.7
11760.7
11760.7
11760.6
11760.5
11760.6
11741.5
11746.7
11744.7
11745.3
11746
11745.4
11744.8
11744.6
11744.5
11744.3
11743.6
11742.8
11742.8
11743.6
11744.2
11743.3
11742.1
11742.9
11742.8
11742.5
11742.6
11742.5
11742.2
11741.9
11741.7
11741.6
11732.9
11733.9
11733.5
11734.5
11733
11730.5
11728.9
11728.9
11729.9
11731
11731.4
11730.6
11729.3
11728.7
11728.7
11727.6
11726
11725.9
11725.5
11724.7
11724.5
11724.2
11723.6
11723
11722.5
11722.1
11716.5
11714.9
11716.2
11715.7
11713
11710.6
11709.5
11709.7
11710.8
11712.2
11713.3
11713.1
11711.5
11710.1
11709.8
11708.9
11707.6
11707.3
11706.9
11706.2
11705.5
11704.8
11703.9
11703.1
11702.3
11701.6
11690.1
11689.7
11690
11687.7
11685.6
11685.1
11685.5
11686.1
11686.7
11687.7
11689
11689.6
11688.7
11687.6
11687.7
11687.5
11686.7
11686.4
11686.1
11685.4
11684.6
11683.6
11682.6
11681.6
11680.8
11680.2
11662.6
11663
11661
11658.7
11658.5
11659.9
11661.3
11661.9
11661.9
11661.8
11662.7
11663.8
11663.9
11663.4
11663.8
11664.1
11663.9
11663.7
11663.4
11662.7
11661.9
11661
11660.1
11659.3
11658.7
11658.3
11638.4
11637.3
11635.2
11635
11636.6
11638.5
11639.7
11639.7
11638.9
11638
11638.1
11639.1
11639.7
11639.6
11639.9
11640.3
11640.3
11640
11639.7
11639.2
11638.5
11637.8
11637.2
11636.7
11636.5
11636.4
11614.6
11612.4
11613.1
11615.2
11617.5
11618.4
11618.3
11617.7
11616.8
11615.8
11615.5
11616.2
11617
11616.8
11616.7
11616.8
11616.8
11616.5
11616.2
11615.9
11615.5
11615.1
11614.8
11614.6
11614.5
11614.5
11589.3
11589.3
11592.5
11595.5
11597.2
11597
11595.8
11595.2
11594.9
11594.6
11594.4
11594.7
11595.1
11594.9
11594.6
11594.5
11594.3
11594.1
11593.8
11593.6
11593.3
11593.1
11592.9
11592.7
11592.6
11592.4
11565.4
11568.6
11571.7
11573.8
11574.6
11573.9
11572.8
11572.7
11573.3
11573.8
11574
11574.1
11574
11573.8
11573.4
11573.1
11572.8
11572.5
11572.2
11571.9
11571.6
11571.2
11570.9
11570.5
11570.1
11569.7
11545.4
11549.4
11550
11550.4
11550.4
11549.9
11549.7
11550.3
11551.6
11552.7
11553.2
11553.2
11552.9
11552.5
11551.9
11551.4
11551
11550.6
11550.1
11549.6
11549.1
11548.5
11547.8
11547.2
11546.5
11545.9
11525.9
11527.4
11525.7
11524.9
11524.8
11525
11525.7
11527
11528.5
11529.7
11530
11529.8
11529.3
11528.8
11528.2
11527.6
11527.2
11526.7
11526.1
11525.5
11524.7
11523.9
11523.1
11522.2
11521.4
11520.7
11500.6
11498.7
11496.7
11496.2
11496.6
11497.6
11498.9
11500.4
11501.7
11502.5
11502.6
11502.3
11501.9
11501.5
11501.1
11500.8
11500.5
11500.2
11499.7
11499
11498.3
11497.5
11496.7
11495.9
11495.2
11494.6
11468.2
11464.9
11464.5
11464.9
11465.9
11467.4
11468.9
11470.1
11471
11471.4
11471.4
11471.3
11471.2
11471.3
11471.4
11471.6
11471.8
11471.7
11471.5
11471.1
11470.6
11470
11469.4
11468.9
11468.4
11468
11433
11431.1
11432.3
11433.4
11434.5
11435.8
11437
11437.7
11438.1
11438.3
11438.5
11438.8
11439.3
11440
11440.9
11441.6
11442.3
11442.7
11442.8
11442.8
11442.6
11442.2
11441.9
11441.6
11441.3
11441.2
11400.9
11401.4
11403
11403.7
11404.3
11404.8
11405.3
11405.6
11405.7
11406
11406.5
11407.3
11408.5
11409.8
11411.2
11412.4
11413.3
11414
11414.5
11414.7
11414.7
11414.6
11414.5
11414.4
11414.3
11414.4
11374.4
11376.1
11376.7
11376.3
11376
11375.7
11375.6
11375.6
11375.7
11376.2
11377.1
11378.3
11379.8
11381.4
11383
11384.3
11385.4
11386.1
11386.7
11387
11387.2
11387.3
11387.4
11387.6
11387.8
11388.1
11351.6
11352.4
11351.6
11350.3
11349.4
11348.8
11348.4
11348.4
11348.6
11349.2
11350.3
11351.7
11353.3
11354.8
11356.3
11357.5
11358.5
11359.2
11359.8
11360.2
11360.6
11360.9
11361.3
11361.7
11362.2
11362.8
11328.5
11327.5
11325.6
11324.2
11323.4
11322.9
11322.7
11322.9
11323.4
11324.2
11325.4
11326.7
11328.2
11329.6
11330.8
11331.8
11332.7
11333.4
11334.1
11334.7
11335.3
11335.9
11336.6
11337.4
11338.2
11339.1
11303.4
11300.8
11299.1
11298.2
11298
11298
11298.3
11298.8
11299.6
11300.6
11301.8
11303.1
11304.3
11305.5
11306.6
11307.5
11308.4
11309.2
11310
11310.9
11311.9
11312.9
11314.1
11315.2
11316.4
11317.6
11277.8
11274.7
11273.9
11274
11274.5
11275.1
11275.7
11276.5
11277.4
11278.6
11279.8
11281
11282.2
11283.3
11284.3
11285.3
11286.3
11287.3
11288.5
11289.7
11291.1
11292.6
11294.1
11295.6
11297.1
11298.5
11255.7
11253.4
11253.7
11254.6
11255.5
11256.3
11257
11257.7
11258.6
11259.7
11260.8
11261.9
11263
11264
11265.1
11266.2
11267.4
11268.7
11270.2
11271.8
11273.5
11275.3
11277.1
11278.8
11280.5
11282
11240.2
11239.7
11240.7
11241.7
11242.4
11242.9
11243.3
11243.9
11244.6
11245.4
11246.3
11247.1
11248
11249
11250
11251.2
11252.6
11254.1
11255.8
11257.6
11259.5
11261.4
11263.3
11265.1
11266.8
11268.2
11231.7
11232.6
11233.5
11233.9
11234.1
11234
11234.1
11234.4
11234.7
11235.2
11235.8
11236.4
11237.1
11238
11239
11240.1
11241.5
11243.1
11244.9
11246.7
11248.7
11250.6
11252.4
11254.1
11255.6
11256.9
11228
11229.2
11229.4
11229.1
11228.6
11228.2
11227.9
11227.9
11228
11228.2
11228.5
11228.9
11229.5
11230.2
11231.1
11232.2
11233.5
11235.1
11236.7
11238.5
11240.3
11242
11243.7
11245.2
11246.5
11247.6
11225.6
11226.1
11225.6
11224.8
11223.9
11223.3
11223
11222.9
11222.9
11222.9
11223.1
11223.4
11223.8
11224.4
11225.3
11226.3
11227.5
11229
11230.5
11232.1
11233.6
11235.2
11236.6
11237.8
11239
11239.9
11221.9
11221.4
11220.3
11219.4
11218.7
11218.3
11218.2
11218.2
11218.2
11218.3
11218.5
11218.8
11219.2
11219.9
11220.7
11221.6
11222.8
11224.1
11225.4
11226.8
11228.2
11229.5
11230.7
11231.8
11232.8
11233.6
11216.2
11214.9
11213.9
11213.3
11213.1
11213.1
11213.3
11213.6
11213.8
11214.1
11214.4
11214.8
11215.4
11216
11216.9
11217.8
11218.9
11220.1
11221.4
11222.6
11223.8
11225
11226
11227
11227.8
11228.6
11209.9
11208.4
11207.9
11207.9
11208.2
11208.7
11209.2
11209.7
11210.2
11210.7
11211.2
11211.7
11212.4
11213.1
11214
11215
11216.1
11217.2
11218.3
11219.4
11220.5
11221.5
11222.5
11223.3
11224.1
11224.8
11204.9
11203.9
11204
11204.6
11205.4
11206.1
11206.9
11207.5
11208.1
11208.7
11209.3
11209.9
11210.7
11211.5
11212.4
11213.4
11214.4
11215.4
11216.4
11217.4
11218.3
11219.2
11220
11220.8
11221.4
11222
11202.8
11202.7
11203.4
11204.3
11205.2
11206
11206.7
11207.3
11207.9
11208.4
11209.1
11209.7
11210.4
11211.2
11212.1
11212.9
11213.8
11214.7
11215.6
11216.4
11217.1
11217.8
11218.5
11219.1
11219.6
11220
11203.8
11204.6
11205.6
11206.5
11207.3
11207.9
11208.4
11208.8
11209.3
11209.7
11210.2
11210.8
11211.4
11212
11212.7
11213.4
11214.1
11214.8
11215.4
11216
11216.6
11217.1
11217.5
11217.9
11218.2
11218.5
11206.9
11208.2
11209.2
11209.8
11210.3
11210.6
11210.8
11211
11211.3
11211.5
11211.8
11212.2
11212.6
11213.1
11213.6
11214.1
11214.6
11215
11215.4
11215.8
11216.1
11216.3
11216.5
11216.7
11216.8
11216.8
11209.9
11211.4
11212.1
11212.4
11212.5
11212.6
11212.5
11212.5
11212.6
11212.7
11212.8
11213
11213.3
11213.6
11213.9
11214.2
11214.5
11214.7
11214.9
11215
11215.1
11215.1
11215.1
11215
11214.8
11214.7
11211
11212.3
11212.6
11212.6
11212.5
11212.3
11212.2
11212.1
11212
11212
11212.1
11212.2
11212.4
11212.6
11212.8
11212.9
11213
11213.1
11213.1
11213.1
11213
11212.8
11212.6
11212.4
11212
11211.6
11208.9
11209.7
11209.7
11209.5
11209.3
11209.1
11208.9
11208.8
11208.8
11208.9
11209
11209.2
11209.4
11209.5
11209.7
11209.8
11209.9
11209.9
11209.8
11209.7
11209.5
11209.2
11208.9
11208.5
11208.1
11207.6
11203.3
11203.5
11203.3
11203
11202.8
11202.7
11202.7
11202.8
11203
11203.2
11203.5
11203.8
11204.1
11204.3
11204.6
11204.7
11204.8
11204.8
11204.7
11204.6
11204.4
11204.1
11203.8
11203.3
11202.9
11202.3
11194.6
11194.4
11194.1
11193.9
11193.9
11194
11194.2
11194.6
11195
11195.4
11195.9
11196.4
11196.9
11197.3
11197.6
11197.9
11198.1
11198.1
11198.1
11198.1
11197.9
11197.7
11197.3
11197
11196.5
11196
11184
11183.5
11183.3
11183.3
11183.5
11183.9
11184.4
11185
11185.6
11186.4
11187.1
11187.8
11188.4
11188.9
11189.4
11189.8
11190.1
11190.3
11190.3
11190.3
11190.3
11190.1
11189.8
11189.5
11189.1
11188.7
11172.7
11172.2
11172.2
11172.4
11172.8
11173.4
11174.2
11175
11175.9
11176.8
11177.7
11178.5
11179.3
11179.9
11180.5
11180.9
11181.3
11181.6
11181.7
11181.8
11181.8
11181.7
11181.5
11181.2
11180.9
11180.5
11161.7
11161.4
11161.7
11162.1
11162.8
11163.6
11164.5
11165.4
11166.4
11167.4
11168.4
11169.2
11170
11170.7
11171.3
11171.7
11172.1
11172.4
11172.6
11172.7
11172.7
11172.6
11172.4
11172.2
11171.9
11171.5
11151.7
11151.8
11152.3
11152.9
11153.7
11154.6
11155.6
11156.6
11157.6
11158.5
11159.4
11160.2
11160.9
11161.5
11162
11162.4
11162.7
11162.9
11163
11163
11163
11162.8
11162.6
11162.3
11162
11161.6
11142.6
11143.2
11143.9
11144.7
11145.5
11146.5
11147.4
11148.3
11149.1
11149.9
11150.6
11151.2
11151.7
11152.2
11152.5
11152.7
11152.8
11152.9
11152.8
11152.7
11152.5
11152.3
11151.9
11151.6
11151.1
11150.6
11134
11135
11135.9
11136.7
11137.6
11138.4
11139.2
11139.9
11140.5
11141.1
11141.5
11141.9
11142.1
11142.2
11142.3
11142.3
11142.2
11142
11141.7
11141.4
11141
11140.6
11140.1
11139.5
11138.8
11138.1
11124.9
11126.3
11127.3
11128.1
11128.9
11129.6
11130.1
11130.6
11130.9
11131.1
11131.3
11131.3
11131.2
11131
11130.8
11130.5
11130.1
11129.6
11129.1
11128.6
11127.9
11127.2
11126.5
11125.7
11124.8
11123.9
11114.2
11115.9
11116.9
11117.6
11118.2
11118.7
11119
11119.2
11119.2
11119.1
11118.9
11118.6
11118.2
11117.8
11117.2
11116.6
11115.9
11115.2
11114.4
11113.5
11112.6
11111.7
11110.7
11109.6
11108.5
11107.4
11100.8
11102.6
11103.5
11104.1
11104.5
11104.7
11104.8
11104.7
11104.4
11104.1
11103.6
11103
11102.3
11101.6
11100.7
11099.9
11098.9
11097.9
11096.9
11095.7
11094.6
11093.4
11092.2
11090.9
11089.6
11088.2
11083.5
11085.4
11086.1
11086.5
11086.7
11086.7
11086.6
11086.2
11085.8
11085.2
11084.5
11083.7
11082.8
11081.8
11080.7
11079.6
11078.5
11077.3
11076
11074.7
11073.3
11071.9
11070.5
11069
11067.5
11066
11061.8
11063.5
11064
11064.3
11064.3
11064.2
11063.8
11063.3
11062.7
11061.9
11061.1
11060.1
11059.1
11057.9
11056.8
11055.5
11054.2
11052.8
11051.4
11050
11048.5
11046.9
11045.4
11043.8
11042.1
11040.5
11035.2
11036.7
11037
11037.1
11037
11036.7
11036.3
11035.7
11034.9
11034.1
11033.2
11032.1
11031
11029.8
11028.6
11027.2
11025.9
11024.4
11023
11021.4
11019.9
11018.3
11016.7
11015
11013.3
11011.6
11003.8
11004.9
11005.1
11005.1
11004.9
11004.5
11004
11003.4
11002.6
11001.7
11000.8
10999.8
10998.6
10997.4
10996.2
10994.9
10993.5
10992.1
10990.6
10989.1
10987.6
10986
10984.4
10982.8
10981.1
10979.4
10967.8
10968.7
10968.7
10968.6
10968.3
10967.9
10967.4
10966.8
10966
10965.2
10964.3
10963.3
10962.2
10961.1
10959.9
10958.7
10957.4
10956
10954.7
10953.2
10951.8
10950.3
10948.8
10947.2
10945.7
10944
10927.9
10928.5
10928.4
10928.2
10927.9
10927.5
10927
10926.4
10925.7
10925
10924.1
10923.2
10922.3
10921.3
10920.2
10919.1
10917.9
10916.7
10915.5
10914.2
10912.9
10911.5
10910.2
10908.8
10907.3
10905.9
10884.8
10885.1
10885
10884.7
10884.4
10884
10883.5
10883
10882.4
10881.7
10881
10880.2
10879.4
10878.5
10877.6
10876.6
10875.6
10874.6
10873.5
10872.4
10871.3
10870.1
10869
10867.8
10866.5
10865.3
10839.2
10839.3
10839.1
10838.8
10838.5
10838.1
10837.7
10837.2
10836.7
10836.1
10835.5
10834.9
10834.2
10833.4
10832.7
10831.9
10831.1
10830.2
10829.4
10828.5
10827.6
10826.6
10825.7
10824.7
10823.7
10822.7
10791.9
10791.8
10791.6
10791.3
10791
10790.6
10790.2
10789.8
10789.4
10788.9
10788.4
10787.9
10787.3
10786.8
10786.2
10785.6
10784.9
10784.3
10783.7
10783
10782.3
10781.6
10780.9
10780.2
10779.4
10778.6
10743.6
10743.3
10743.1
10742.8
10742.5
10742.2
10741.8
10741.5
10741.1
10740.7
10740.3
10739.9
10739.5
10739.1
10738.7
10738.3
10737.8
10737.4
10736.9
10736.5
10736
10735.6
10735.1
10734.6
10734.1
10733.6
10694.9
10694.5
10694.2
10693.9
10693.6
10693.3
10693
10692.7
10692.5
10692.2
10691.9
10691.6
10691.3
10691.1
10690.8
10690.5
10690.3
10690
10689.8
10689.5
10689.3
10689
10688.8
10688.5
10688.2
10688
10646.3
10645.8
10645.5
10645.2
10645
10644.7
10644.5
10644.2
10644
10643.8
10643.6
10643.4
10643.3
10643.1
10643
10642.9
10642.8
10642.7
10642.7
10642.6
10642.5
10642.5
10642.4
10642.4
10642.3
10642.3
10598.4
10597.8
10597.5
10597.2
10596.9
10596.7
10596.5
10596.3
10596.2
10596.1
10596
10595.9
10595.8
10595.8
10595.8
10595.8
10595.9
10595.9
10596
10596.1
10596.2
10596.3
10596.4
10596.5
10596.7
10596.8
10551.4
10550.8
10550.4
10550.2
10549.9
10549.8
10549.6
10549.5
10549.4
10549.3
10549.3
10549.3
10549.3
10549.4
10549.5
10549.6
10549.8
10549.9
10550.1
10550.3
10550.6
10550.8
10551.1
10551.4
10551.7
10552
10505.7
10505
10504.7
10504.5
10504.3
10504.1
10504
10503.9
10503.9
10503.9
10503.9
10504
10504.1
10504.2
10504.4
10504.6
10504.8
10505.1
10505.4
10505.7
10506
10506.3
10506.7
10507.1
10507.5
10508
10461.4
10460.8
10460.5
10460.3
10460.1
10460
10459.9
10459.9
10459.9
10459.9
10460
10460.1
10460.3
10460.5
10460.7
10460.9
10461.2
10461.5
10461.9
10462.2
10462.6
10463
10463.5
10464
10464.5
10465
10418.7
10418.1
10417.9
10417.7
10417.6
10417.5
10417.5
10417.5
10417.5
10417.6
10417.7
10417.8
10418
10418.2
10418.4
10418.7
10419
10419.4
10419.7
10420.2
10420.6
10421.1
10421.6
10422.1
10422.7
10423.3
10377.7
10377.2
10377
10376.9
10376.8
10376.7
10376.7
10376.7
10376.8
10376.8
10377
10377.1
10377.3
10377.5
10377.7
10378
10378.3
10378.7
10379.1
10379.5
10379.9
10380.4
10381
10381.5
10382.1
10382.8
10338.3
10337.9
10337.7
10337.6
10337.6
10337.5
10337.5
10337.5
10337.6
10337.7
10337.8
10337.9
10338.1
10338.3
10338.6
10338.8
10339.1
10339.5
10339.8
10340.2
10340.7
10341.2
10341.7
10342.3
10342.9
10343.5
10300.5
10300.1
10300
10299.9
10299.9
10299.9
10299.9
10299.9
10299.9
10300
10300.1
10300.2
10300.4
10300.5
10300.8
10301
10301.3
10301.6
10301.9
10302.3
10302.7
10303.2
10303.7
10304.3
10304.8
10305.5
10264
10263.7
10263.6
10263.6
10263.6
10263.5
10263.5
10263.6
10263.6
10263.6
10263.7
10263.8
10263.9
10264.1
10264.3
10264.5
10264.7
10265
10265.3
10265.6
10266
10266.4
10266.9
10267.4
10268
10268.6
10228.8
10228.5
10228.5
10228.4
10228.4
10228.4
10228.4
10228.4
10228.4
10228.5
10228.5
10228.6
10228.7
10228.8
10228.9
10229.1
10229.3
10229.5
10229.8
10230.1
10230.4
10230.8
10231.2
10231.7
10232.2
10232.7
10194.5
10194.3
10194.3
10194.3
10194.3
10194.2
10194.2
10194.2
10194.2
10194.2
10194.3
10194.3
10194.4
10194.5
10194.6
10194.7
10194.8
10195
10195.3
10195.5
10195.8
10196.1
10196.5
10196.9
10197.3
10197.8
10161
10160.9
10160.9
10160.9
10160.9
10160.9
10160.9
10160.8
10160.8
10160.8
10160.8
10160.9
10160.9
10160.9
10161
10161.1
10161.2
10161.4
10161.6
10161.8
10162
10162.3
10162.6
10162.9
10163.3
10163.7
10128.2
10128.2
10128.1
10128.1
10128.1
10128.1
10128.1
10128.1
10128.1
10128
10128
10128
10128.1
10128.1
10128.1
10128.2
10128.3
10128.4
10128.5
10128.7
10128.9
10129.1
10129.3
10129.6
10129.9
10130.3
10095.9
10095.9
10095.9
10095.8
10095.8
10095.8
10095.8
10095.8
10095.8
10095.8
10095.7
10095.7
10095.7
10095.8
10095.8
10095.8
10095.9
10096
10096.1
10096.2
10096.3
10096.5
10096.7
10096.9
10097.1
10097.4
10063.9
10063.9
10063.9
10063.9
10063.9
10063.8
10063.8
10063.8
10063.8
10063.8
10063.8
10063.8
10063.8
10063.8
10063.8
10063.8
10063.9
10063.9
10064
10064.1
10064.1
10064.2
10064.4
10064.5
10064.7
10064.9
10032.1
10032.2
10032.2
10032.2
10032.2
10032.2
10032.2
10032.2
10032.2
10032.1
10032.1
10032.1
10032.1
10032.1
10032.1
10032.2
10032.2
10032.2
10032.2
10032.3
10032.3
10032.4
10032.4
10032.5
10032.6
10032.6
10000.1
10000.1
10000.1
10000.1
10000.1
10000.1
10000.1
10000.1
10000.1
10000.1
10000.1
10000.1
10000.1
10000.1
10000.1
10000.1
10000.1
10000.1
10000.1
10000.1
10000.1
10000.1
10000.1
10000.1
10000.1
10000.1
10000
10000
10000
10000
10000
10000
10000
10000
10000
10000
10000
10000
10000
10000
10000
10000
10000
10000
10000
10000
10000
10000
10000
10000
10000
10000
10000
10000
10000
10000
10000
10000
10000
10000
10000
10000
10000
10000
10000
10000
10000
10000
10000
10000
10000
10000
10000
10000
10000
10000
10000
10000
10000
10000
10000
10000
10000
10000
10000
10000
10000
10000
10000
10000
10000
10000
10000
10000
10000
10000
10000
10000
10000
10000
10000
10000
10000
10000
10000
10000
10000
10000
10000
10000
10000
10000
10000
10000
10000
10000
10000
10000
10000
10000
10000
10000
10000
10000
10000
10000
10000
10000
10000
10000
10000
10000
10000
10000
10000
10000
10000
10000
10000
10000
10000
10000
10000
10000
10000
10000
10000
10000
10000
10000
10000
10000
10000
10000
10000
10000
10000
10000
10000
10000
10000
10000
10000
10000
10000
10000
10000
10000
10000
10000
10000
10000
10000
10000
10000
10000
10000
10000
10000
10000
10000
10000
10000
10000
10000
10000
10000
10000
10000
10000
10000
10000
10000
10000
10000
10000
10000
10000
10000
10000
10000
10000
10000
10000
10000
10000
10000
10000
10000
10000
10000
10000
10000
10000
10000
10000
10000
10000
10000
10000
10000
10000
10000
10000
10000
10000
10000
10000
10000
10000
10000
10000
10000
10000
10000
10000
10000
10000
10000
10000
10000
10000
10000
10000
10000
10000
10000
10000
10000
10000
10000
10000
10000
10000
10000
10000
10000
10000
10000
10000
10000
10000
10000
10000
10000
10000
10000
10000
10000
10000
10000
10000
10000
10000
10000
10000
10000
10000
10000
10000
10000
10000
10000
10000
10000
10000
10000
10000
10000
10000
10000
10000
10000
10000
10000
10000
10000
10000
10000
10000
10000
10000
10000
10000
10000
10000
10000
10000
10000
10000
10000
10000
10000
10000
10000
10000
10000
10000
10000
10000
10000
10000
10000
10000
10000
10000
10000
10000
10000
10000
10000
10000
10000
10000
10000
10000
10000
10000
10000
10000
10000
10000
10000
10000
10000
10000
10000
10000
10000
10000
10000
10000
10000
10000
10000
10000
10000
10000
10000
10000
10000
10000
10000
10000
10000
10000
10000
10000
10000
10000
10000
10000
10000
10000
10000
10000
10000
10000
10000
10000
10000
10000
10000
10000
10000
10000
10000
10000
10000
10000
10000
10000
10000
10000
10000
10000
10000
10000
10000
10000
10000
10000
10000
10000
10000
10000
10000
10000
10000
10000
10000
10000
10000
10000
10000
10000
10000
10000
10000
10000
10000
10000
10000
10000
10000
10000
10000
10000
10000
10000
10000
10000
10000
10000
10000
10000
10000
10000
10000
10000
10000
10000
10000
10000
10000
10000
10000
10000
10000
10000
10000
10000
10000
10000
10000
10000
10000
10000
10000
10000
10000
10000
10000
10000
10000
10000
10000
10000
10000
10000
10000
10000
10000
10000
10000
10000
10000
10000
10000
10000
10000
10000
10000
10000
10000
10000
10000
10000
10000
10000
10000
10000
10000
10000
10000
10000
10000
10000
10000
10000
10000
10000
10000
10000
10000
10000
10000
10000
10000
10000
10000
10000
10000
10000
10000
10000
10000
10000
10000
10000
10000
10000
10000
10000
10000
10000
10000
10000
10000
10000
10000
10000
10000
10000
10000
10000
10000
10000
10000
10000
10000
10000
10000
10000
10000
10000
10000
10000
10000
10000
10000
10000
10000
10000
10000
10000
10000
10000
10000
10000
10000
10000
10000
10000
10000
10000
10000
10000
10000
10000
10000
10000
10000
10000
10000
10000
10000
10000
10000
10000
10000
10000
10000
10000
10000
10000
10000
10000
10000
10000
10000
10000
10000
10000
10000
10000
10000
10000
10000
10000
10000
10000
10000
10000
10000
10000
10000
10000
10000
10000
10000
10000
10000
10000
10000
10000
10000
10000
10000
10000
10000
10000
10000
10000
10000
10000
10000
10000
10000
10000
10000
10000
10000
10000
10000
10000
10000
10000
10000
10000
10000
10000
10000
10000
10000
10000
10000
10000
10000
10000
10000
10000
10000
10000
10000
10000
10000
10000
10000
10000
10000
10000
10000
10000
10000
10000
10000
10000
10000
10000
10000
10000
10000
10000
10000
10000
10000
10000
10000
10000
10000
10000
10000
10000
10000
10000
10000
10000
10000
10000
10000
10000
10000
10000
10000
10000
10000
10000
10000
10000
10000
10000
10000
10000
10000
10000
10000
10000
10000
10000
10000
10000
10000
10000
10000
10000
10000
10000
10000
10000
10000
10000
10000
10000
10000
10000
10000
10000
10000
10000
10000
10000
10000
10000
10000
10000
10000
10000
10000
10000
10000
10000
10000
10000
10000
10000
10000
10000
10000
10000
10000
10000
10000
10000
10000
10000
10000
10000
10000
10000
10000
10000
10000
10000
10000
10000
10000
10000
10000
10000
10000
10000
10000
10000
10000
10000
10000
10000
10000
10000
10000
10000
10000
10000
10000
10000
10000
10000
10000
10000
10000
10000
10000
10000
10000
10000
10000
10000
10000
10000
10000
10000
10000
10000
10000
10000
10000
10000
10000
10000
10000
10000
10000
10000
10000
10000
10000
10000
10000
10000
10000
10000
10000
10000
10000
10000
10000
10000
10000
10000
10000
10000
10000
10000
10000
10000
10000
10000
10000
10000
10000
10000
10000
10000
10000
10000
10000
10000
10000
10000
10000
10000
10000
10000
10000
10000
10000
10000
10000
10000
10000
10000
10000
10000
10000
10000
10000
10000
10000
10000
10000
10000
10000
10000
10000
10000
10000
10000
10000
10000
10000
10000
10000
10000
10000
10000
10000
10000
10000
10000
10000
10000
10000
10000
10000
10000
10000
10000
10000
10000
10000
10000
10000
10000
10000
10000
10000
10000
10000
10000
10000
10000
10000
10000
10000
10000
10000
10000
10000
10000
10000
10000
10000
10000
10000
10000
10000
10000
10000
10000
10000
10000
10000
10000
10000
10000
10000
10000
10000
10000
10000
10000
10000
10000
10000
10000
10000
10000
10000
10000
10000
10000
10000
10000
10000
10000
10000
10000
10000
10000
10000
10000
10000
10000
10000
10000
10000
10000
10000
10000
10000
10000
10000
10000
10000
10000
10000
10000
10000
10000
10000
10000
10000
10000
10000
10000
10000
10000
10000
10000
10000
10000
10000
10000
10000
10000
10000
10000
10000
10000
10000
10000
10000
10000
10000
10000
10000
10000
10000
10000
10000
10000
10000
10000
10000
10000
10000
10000
10000
10000
10000
10000
10000
10000
10000
10000
10000
10000
10000
10000
10000
10000
10000
10000
10000
10000
10000
10000
10000
10000
10000
10000
10000
10000
10000
10000
10000
10000
10000
10000
10000
10000
10000
10000
10000
10000
10000
10000
10000
10000
10000
10000
10000
10000
10000
10000
10000
10000
10000
10000
10000
10000
10000
10000
10000
10000
10000
10000
10000
10000
10000
10000
10000
10000
10000
10000
10000
10000
10000
10000
10000
10000
10000
10000
10000
10000
10000
10000
10000
10000
10000
10000
10000
10000
10000
10000
10000
10000
10000
10000
10000
10000
10000
10000
10000
10000
10000
10000
10000
10000
10000
10000
10000
10000
10000
10000
10000
10000
10000
10000
10000
10000
10000
10000
10000
10000
10000
10000
10000
10000
10000
10000
10000
10000
10000
10000
10000
10000
10000
10000
10000
10000
10000
10000
10000
10000
10000
10000
10000
10000
10000
10000
10000
10000
10000
10000
10000
10000
10000
10000
10000
10000
10000
10000
10000
10000
10000
10000
10000
10000
10000
10000
10000
10000
10000
10000
10000
10000
10000
10000
10000
10000
10000
10000
10000
10000
10000
10000
10000
10000
10000
10000
10000
10000
10000
10000
10000
10000
10000
10000
10000
10000
10000
10000
10000
10000
10000
10000
10000
10000
10000
10000
10000
10000
10000
10000
10000
10000
10000
10000
10000
10000
10000
10000
10000
10000
10000
10000
10000
10000
10000
10000
10000
10000
10000
10000
10000
10000
10000
10000
10000
10000
10000
10000
10000
10000
10000
10000
10000
10000
10000
10000
10000
10000
10000
10000
10000
10000
10000
10000
10000
10000
10000
10000
10000
10000
10000
10000
10000
10000
10000
10000
10000
10000
10000
10000
10000
10000
10000
10000
10000
10000
10000
10000
10000
10000
10000
10000
10000
10000
10000
10000
10000
10000
10000
10000
10000
10000
10000
10000
10000
10000
10000
10000
10000
10000
10000
10000
10000
10000
10000
10000
10000
10000
10000
10000
10000
10000
10000
10000
10000
10000
10000
10000
10000
10000
10000
10000
10000
10000
10000
10000
10000
10000
10000
10000
10000
10000
10000
10000
10000
10000
10000
10000
10000
10000
10000
10000
10000
10000
10000
10000
10000
10000
10000
10000
10000
10000
10000
10000
10000
10000
10000
10000
10000
10000
10000
10000
10000
10000
10000
10000
10000
10000
10000
10000
10000
10000
10000
10000
10000
10000
10000
10000
10000
10000
10000
10000
10000
10000
10000
10000
10000
10000
10000
10000
10000
10000
10000
10000
10000
10000
10000
10000
10000
10000
10000
10000
10000
10000
10000
10000
10000
10000
10000
10000
10000
10000
10000
10000
10000
10000
10000
10000
10000
10000
10000
10000
10000
10000
10000
10000
10000
10000
10000
10000
10000
10000
10000
10000
10000
10000
10000
10000
10000
10000
10000
10000
10000
10000
10000
10000
10000
10000
10000
10000
10000
10000
10000
10000
10000
10000
10000
10000
10000
10000
10000
10000
10000
10000
10000
10000
10000
10000
10000
10000
10000
10000
10000
10000
10000
10000
10000
10000
10000
10000
10000
10000
10000
10000
10000
10000
10000
10000
10000
10000
10000
10000
10000
10000
10000
10000
10000
10000
10000
10000
10000
10000
10000
10000
10000
10000
10000
10000
10000
10000
10000
10000
10000
10000
10000
10000
10000
10000
10000
10000
10000
10000
10000
10000
10000
10000
10000
10000
10000
10000
10000
10000
10000
10000
10000
10000
10000
10000
10000
10000
10000
10000
10000
10000
10000
10000
10000
10000
10000
10000
10000
10000
10000
10000
10000
10000
10000
10000
10000
10000
10000
10000
10000
10000
10000
10000
10000
10000
10000
10000
10000
10000
10000
10000
10000
10000
10000
10000
10000
10000
10000
10000
10000
10000
10000
10000
10000
10000
10000
10000
10000
10000
10000
10000
10000
10000
10000
10000
10000
10000
10000
10000
10000
10000
10000
10000
10000
10000
10000
10000
10000
10000
10000
10000
10000
10000
10000
10000
10000
10000
10000
10000
10000
10000
10000
10000
10000
10000
10000
10000
10000
10000
10000
10000
10000
10000
10000
10000
10000
10000
10000
10000
10000
10000
10000
10000
10000
10000
10000
10000
10000
10000
10000
10000
10000
10000
10000
10000
10000
10000
10000
10000
10000
10000
10000
10000
10000
10000
10000
10000
10000
10000
10000
10000
10000
10000
10000
10000
10000
10000
10000
10000
10000
10000
10000
10000
10000
10000
10000
10000
10000
10000
10000
10000
10000
10000
10000
10000
10000
10000
10000
10000
10000
10000
10000
10000
10000
10000
10000
10000
10000
10000
10000
10000
10000
10000
10000
10000
10000
10000
10000
10000
10000
10000
10000
10000
10000
10000
10000
10000
10000
10000
10000
10000
10000
10000
10000
10000
10000
10000
10000
10000
10000
10000
10000
10000
10000
10000
10000
10000
10000
10000
10000
10000
10000
10000
10000
10000
10000
10000
10000
10000
10000
10000
10000
10000
10000
10000
10000
10000
10000
10000
10000
10000
10000
10000
10000
10000
10000
10000
10000
10000
10000
10000
10000
10000
10000
10000
10000
10000
10000
10000
10000
10000
10000
10000
10000
10000
10000
10000
10000
10000
10000
10000
10000
10000
10000
10000
10000
10000
10000
10000
10000
10000
10000
10000
10000
10000
10000
10000
10000
10000
10000
10000
10000
10000
10000
10000
10000
10000
10000
10000
10000
10000
10000
10000
10000
10000
10000
10000
10000
10000
10000
10000
10000