/*--------------------------------*- C++ -*----------------------------------*\
  =========                 |
  \\      /  F ield         | OpenFOAM: The Open Source CFD Toolbox
   \\    /   O peration     | Website:  https://openfoam.org
    \\  /    A nd           | Version:  7
     \\/     M anipulation  |
\*---------------------------------------------------------------------------*/
FoamFile
{
    version     2.0;
    format      ascii;
    class       volScalarField;
    location    "0.01";
    object      pPrime.particles-SchneiderbauerFrictional;
}
// * * * * * * * * * * * * * * * * * * * * * * * * * * * * * * * * * * * * * //

dimensions      [1 -1 -2 0 0 0 0];

internalField   nonuniform List<scalar> 
10790
(
0.20874
0.202761
0.21466
0.232558
0.211505
0.204772
0.206802
0.207138
0.205214
0.206656
0.207057
0.207258
0.206616
0.207423
0.20687
0.205907
0.206488
0.206606
0.206481
0.206882
0.207146
0.208872
0.211366
0.212753
0.215419
0.222602
8.413e-05
0.000194028
0.000192582
0.000216179
0.00021696
0.000199235
0.000214108
0.000219323
0.000271552
0.000223096
0.000210433
0.000195288
0.00024359
0.000215412
0.000210048
0.000243012
0.000217457
0.000216898
0.000234148
0.000227353
0.000224784
0.000207607
0.000220896
0.000204957
0.000198945
8.6034e-05
1.03195e-05
3.94596e-06
5.36331e-06
3.65152e-06
6.87184e-06
8.08866e-06
7.10128e-06
1.12801e-05
1.22888e-05
6.24851e-06
7.87193e-06
4.87814e-06
8.46982e-06
6.02278e-06
4.85126e-06
7.18928e-06
4.12122e-06
6.57103e-06
1.35778e-05
6.64211e-06
6.5066e-06
7.2687e-06
8.65772e-06
5.32299e-06
4.88314e-06
6.62045e-06
1.07119e-06
1.76191e-06
9.56975e-07
6.33248e-07
6.18153e-07
6.38246e-07
1.52798e-06
6.91734e-07
8.41099e-07
1.20393e-06
1.38656e-06
3.78409e-07
6.06234e-07
1.06762e-06
4.51651e-07
4.8583e-07
5.396e-07
2.10442e-06
3.57778e-07
1.96936e-06
6.93622e-07
2.47365e-06
5.0615e-07
5.73006e-07
7.28223e-07
1.02911e-06
1.07406e-06
1.49168e-06
5.95377e-07
1.32584e-06
3.59774e-07
2.61847e-06
3.65846e-07
1.85567e-06
1.17904e-06
8.78015e-07
2.96646e-06
3.88457e-07
3.02604e-07
4.56212e-07
5.91248e-07
3.12379e-07
6.43011e-07
9.42126e-07
2.24817e-06
1.33325e-06
4.57948e-07
1.45465e-06
4.89732e-06
4.40317e-07
6.87766e-07
1.16684e-06
4.44892e-06
4.64502e-07
4.67938e-07
5.82929e-07
3.38089e-06
1.22438e-06
9.45488e-07
7.48467e-07
7.7586e-07
2.74562e-06
7.97548e-07
1.89282e-06
7.24138e-07
3.86064e-07
6.7731e-07
1.37324e-06
4.80262e-07
4.67731e-07
1.71527e-06
1.54596e-06
1.55901e-06
2.22983e-06
1.77436e-06
1.20928e-06
9.05622e-07
1.57868e-06
2.83154e-06
2.79726e-06
8.35365e-07
8.30217e-07
1.0843e-06
2.0289e-06
6.15396e-07
4.66077e-07
7.55817e-07
1.6789e-06
1.54578e-06
4.79051e-07
5.10628e-07
1.15717e-06
8.9358e-07
4.49659e-07
1.3842e-06
6.26098e-07
4.83122e-07
8.7244e-07
7.94382e-07
4.06251e-07
4.34415e-07
1.39058e-06
9.2513e-07
1.05396e-06
8.31634e-07
7.38058e-07
6.84545e-07
3.62158e-07
1.48985e-06
7.25103e-07
6.01445e-07
1.35286e-06
1.75844e-06
8.75662e-07
9.56933e-07
2.00148e-07
3.36633e-07
6.66602e-07
3.2701e-07
1.13469e-06
1.06054e-06
7.1866e-07
2.20234e-06
5.36833e-07
2.11842e-06
8.8258e-07
1.18348e-06
4.84055e-07
4.58649e-07
4.99315e-07
1.93537e-06
1.0659e-06
9.7436e-07
1.50398e-06
6.19089e-07
1.7673e-06
2.35583e-06
5.70423e-07
5.78851e-07
1.8958e-06
1.10959e-06
4.94489e-07
7.42902e-07
1.23558e-06
2.17946e-06
1.15824e-06
7.26167e-07
5.74101e-07
3.95827e-07
4.65176e-06
4.75778e-07
1.55197e-06
1.17119e-06
5.89522e-07
5.49334e-07
5.18869e-07
2.23553e-06
1.60458e-06
1.79581e-06
6.28902e-07
9.16063e-07
5.34835e-07
1.00895e-06
2.35693e-06
4.86347e-07
4.33039e-06
3.94144e-06
3.23098e-06
1.89446e-06
9.16611e-07
6.42727e-07
2.34451e-06
3.07516e-06
8.17164e-07
1.60953e-06
1.03497e-06
1.37396e-06
3.23811e-07
1.98924e-06
1.49188e-06
3.19319e-07
4.54112e-07
1.32849e-06
3.51093e-07
1.35539e-06
4.30106e-07
5.55213e-07
5.30785e-07
5.46196e-07
1.28908e-06
2.42111e-07
1.26095e-06
2.42202e-07
3.29358e-07
2.01994e-06
2.25059e-06
2.25594e-06
1.45387e-06
4.90962e-07
1.49476e-06
3.79432e-07
2.94402e-06
9.2849e-07
6.87867e-07
3.37007e-07
1.88461e-06
1.32916e-06
5.86465e-07
9.28228e-07
1.62667e-06
1.82906e-06
1.47977e-06
2.5531e-07
4.63038e-07
7.52422e-07
1.17813e-06
1.21432e-06
5.9336e-07
4.44372e-07
1.26528e-06
5.23414e-07
5.53956e-07
1.80468e-06
5.29223e-07
2.43724e-07
4.95013e-07
4.37809e-07
5.45541e-07
1.44799e-06
5.64537e-07
5.61146e-07
2.88673e-07
1.25605e-06
1.14735e-06
4.29922e-07
2.74241e-06
1.0728e-06
2.18062e-07
3.28227e-07
1.89612e-06
7.30162e-07
4.36835e-07
1.21576e-06
3.04143e-07
1.47491e-06
2.28007e-07
2.14773e-07
2.06548e-07
1.00437e-06
9.36251e-07
4.58589e-07
8.50514e-07
1.11157e-06
4.51104e-07
5.51348e-07
6.02747e-07
7.65134e-07
1.57658e-06
5.62796e-07
6.94942e-07
1.98419e-06
3.10144e-07
6.85787e-07
7.84457e-07
1.47056e-06
7.54633e-07
1.05926e-06
5.49146e-07
5.17153e-07
4.79952e-07
7.48639e-07
4.68191e-07
4.52261e-07
1.37445e-06
2.97756e-06
9.42116e-07
2.90434e-06
2.01339e-06
1.33628e-06
5.88737e-07
5.34529e-07
5.76501e-07
7.71327e-07
2.74892e-07
9.51508e-07
4.44711e-07
2.651e-06
2.6238e-06
1.31066e-06
1.07125e-06
1.93764e-06
2.57913e-06
9.3157e-07
3.65126e-07
4.5793e-07
3.87923e-07
1.86846e-06
9.07297e-07
1.67526e-06
5.46084e-07
1.81156e-06
2.29505e-06
8.54652e-07
4.98639e-07
1.30684e-06
1.12475e-06
4.51809e-07
1.06166e-06
5.88547e-07
7.71366e-07
5.14856e-07
4.32278e-07
9.03806e-07
2.11746e-06
6.82875e-07
1.20843e-06
6.50714e-07
1.56482e-06
7.5478e-07
7.23426e-07
4.85023e-07
8.39148e-07
1.28949e-06
1.13089e-06
6.77577e-07
1.22051e-06
2.16069e-06
6.29334e-07
5.71101e-07
1.39165e-06
2.91112e-06
1.11702e-06
1.0627e-06
9.67829e-07
2.41407e-06
2.53871e-06
2.88977e-06
1.4748e-06
5.5006e-07
5.12312e-07
3.23849e-06
1.14318e-06
1.02869e-06
1.21412e-06
1.6999e-06
1.18936e-06
2.22058e-06
2.03929e-06
3.82478e-07
2.58281e-07
4.85395e-07
1.03462e-06
2.80223e-07
1.76964e-06
1.33591e-06
1.2126e-06
4.30971e-06
8.28565e-06
3.96891e-06
4.08075e-06
3.60562e-06
1.68062e-06
1.24653e-06
9.39059e-07
2.3656e-06
2.63812e-06
3.26158e-07
1.74105e-07
2.05685e-07
5.31724e-07
4.76862e-07
9.24961e-07
6.76158e-07
1.51615e-06
3.81434e-06
1.53508e-06
1.61831e-06
8.09616e-07
1.07183e-06
2.62155e-06
1.72143e-06
1.89459e-06
9.94495e-07
4.71535e-07
3.20745e-07
2.79254e-07
2.52433e-07
2.77624e-07
7.32192e-07
7.66211e-07
7.25303e-07
1.3793e-06
1.73314e-06
2.17782e-06
2.47215e-06
2.72721e-06
3.11044e-06
1.20437e-06
1.14798e-06
8.02692e-07
5.27565e-07
3.0626e-07
5.73842e-07
2.04648e-06
5.51033e-07
4.17465e-06
1.09281e-06
5.52602e-07
1.02972e-06
1.00329e-06
6.94401e-07
7.34096e-07
1.0151e-06
1.94894e-06
1.18839e-06
9.72033e-07
1.4961e-06
7.55356e-07
5.59845e-07
4.25969e-07
3.80993e-07
9.61481e-07
2.7984e-07
1.67991e-06
5.35378e-07
3.12878e-07
3.63244e-07
2.59127e-07
3.06625e-07
4.57573e-07
1.42234e-06
6.71099e-07
2.93629e-06
1.25739e-06
9.8966e-07
7.02936e-07
4.14547e-07
5.65718e-07
8.9529e-07
2.22186e-07
2.94457e-07
9.98548e-07
9.42433e-07
2.14996e-07
5.55811e-07
7.10384e-07
6.92425e-07
7.76468e-07
4.61207e-07
1.14202e-06
9.62461e-07
5.86141e-07
1.47167e-06
8.13529e-07
9.57711e-07
3.38093e-07
2.68299e-07
6.61502e-07
1.73311e-06
7.40423e-07
1.92251e-07
2.09674e-07
2.20386e-07
3.34822e-07
7.31025e-07
1.96354e-06
9.23513e-07
1.20976e-06
6.98384e-07
1.05767e-06
2.78639e-07
2.33467e-07
4.38995e-07
2.44915e-06
1.55247e-06
6.73693e-07
6.64982e-07
4.68532e-07
5.21646e-07
2.6571e-07
8.01307e-07
2.6092e-07
4.11168e-07
1.39505e-06
1.097e-06
2.03281e-06
5.90224e-07
3.69866e-07
3.02643e-07
4.5495e-07
2.84419e-07
2.66034e-07
3.59603e-07
6.5459e-07
4.02002e-07
4.44874e-07
1.35182e-06
8.61003e-07
4.62204e-07
4.09615e-07
1.61553e-06
4.20692e-07
8.18335e-07
2.98268e-07
4.72282e-07
9.49971e-07
9.69995e-07
1.19066e-06
7.63073e-07
1.20646e-06
3.29843e-06
9.97408e-07
2.69462e-07
4.13279e-07
6.49125e-07
6.77536e-07
1.33353e-06
1.18306e-06
1.3264e-06
1.42061e-06
6.90182e-07
3.78503e-07
3.86283e-07
4.79631e-07
4.81194e-07
6.88288e-07
2.82686e-06
1.1538e-06
1.22604e-06
5.08825e-07
7.29099e-07
8.08074e-07
1.55966e-06
4.42357e-07
3.88617e-07
4.01887e-07
4.62161e-07
7.80337e-07
1.21723e-06
5.21498e-07
6.20136e-07
1.50005e-06
6.17927e-07
4.9566e-07
5.54909e-07
6.80226e-07
1.92867e-06
1.28188e-06
2.00879e-06
1.63058e-06
1.48246e-06
1.62151e-06
2.40915e-06
5.87451e-06
1.24111e-06
1.54671e-06
2.0209e-06
1.56822e-06
1.21032e-06
1.1673e-06
1.14666e-06
1.15965e-06
1.1981e-06
1.32275e-06
1.86769e-06
1.45998e-06
1.62354e-06
2.26164e-06
2.43799e-06
2.61175e-06
2.67948e-06
2.71286e-06
4.64595e-07
2.78223e-07
2.84521e-07
3.36557e-07
4.07428e-07
4.86843e-07
6.6215e-07
1.68619e-06
1.10055e-06
6.49883e-07
8.65128e-07
3.52161e-07
4.16919e-07
5.05002e-07
5.77698e-07
6.39505e-07
7.0081e-07
7.5894e-07
7.77749e-07
8.59145e-07
9.07288e-07
8.9453e-07
8.60912e-07
8.11476e-07
8.37831e-07
8.98641e-07
3.70493e-07
3.00334e-07
3.7473e-07
1.41837e-06
6.40756e-07
3.98353e-07
3.1669e-07
3.24672e-07
8.28547e-07
1.35181e-06
2.84511e-07
1.06659e-06
5.58608e-07
2.56934e-06
9.38121e-07
4.91131e-07
3.88108e-07
3.5026e-07
3.58369e-07
3.83232e-07
3.59812e-07
3.47713e-07
3.43922e-07
3.4412e-07
4.57589e-07
5.89643e-07
4.38481e-07
4.01501e-07
1.15621e-06
9.00569e-07
4.69102e-06
1.29125e-06
1.01086e-06
8.14756e-07
5.89581e-07
3.72432e-07
5.34154e-07
3.34439e-07
2.02728e-06
6.18981e-07
1.85536e-06
1.19046e-06
1.35744e-06
2.52565e-06
2.37513e-06
3.69524e-06
2.3639e-06
1.88562e-06
1.68972e-06
1.17262e-06
1.16921e-06
1.25158e-06
6.42069e-07
6.56848e-07
8.04436e-07
2.56322e-06
9.22693e-07
2.39077e-06
6.62038e-07
5.49955e-07
5.03474e-07
4.51845e-07
4.38203e-07
4.9316e-07
3.85313e-07
1.35728e-06
4.45871e-07
5.16939e-07
9.9808e-07
8.78581e-07
8.15352e-07
6.55955e-07
1.20974e-06
1.19561e-06
1.59393e-06
2.13707e-06
1.31773e-06
1.24632e-06
7.49124e-07
6.41816e-07
7.17413e-07
1.11636e-06
2.69673e-06
5.41348e-07
7.0854e-07
7.34353e-07
8.05848e-07
8.06512e-07
9.11669e-07
5.81561e-07
6.2273e-07
6.82344e-07
7.72394e-07
9.13924e-07
1.20235e-06
2.32274e-06
2.11944e-06
3.46837e-06
2.04317e-06
1.4664e-06
1.25096e-06
6.34417e-07
5.57143e-07
6.50638e-07
8.60409e-07
5.57923e-07
5.70759e-07
6.53115e-07
1.12334e-06
4.49051e-07
9.48217e-07
4.36042e-07
4.26507e-07
4.55765e-07
5.07919e-07
5.76132e-07
6.54171e-07
7.41113e-07
8.33004e-07
9.21682e-07
1.00476e-06
1.07574e-06
1.12697e-06
1.15497e-06
1.3294e-06
1.60862e-06
1.99361e-06
2.60794e-06
1.76161e-06
1.67821e-06
1.83603e-07
1.9278e-07
3.83596e-07
4.43358e-07
1.4763e-06
1.40367e-06
1.69127e-06
4.63084e-07
3.41551e-07
2.85138e-07
2.46184e-07
2.16532e-07
1.9717e-07
1.87414e-07
1.85731e-07
1.89817e-07
1.97293e-07
2.0481e-07
2.08093e-07
2.07391e-07
2.20894e-07
2.46486e-07
2.68205e-07
2.87492e-07
4.06499e-07
5.1117e-07
2.7545e-07
3.10231e-07
5.39969e-07
5.73539e-07
2.64582e-06
8.60705e-07
2.81083e-06
5.31828e-07
4.12667e-07
3.62394e-07
3.29061e-07
3.02548e-07
2.80234e-07
2.61334e-07
2.4541e-07
2.32274e-07
2.21984e-07
2.14577e-07
2.09928e-07
2.07693e-07
2.06767e-07
2.0727e-07
2.08799e-07
2.11996e-07
3.0856e-07
3.94397e-07
8.15184e-07
1.23592e-06
3.36762e-06
1.81432e-06
3.50772e-06
5.20016e-07
3.43902e-06
1.44921e-06
1.8925e-06
1.488e-06
1.0365e-06
8.21637e-07
6.85371e-07
5.89618e-07
5.18885e-07
4.65266e-07
4.24048e-07
3.92239e-07
3.67622e-07
3.48524e-07
3.3359e-07
3.21832e-07
3.12312e-07
3.15901e-07
3.93519e-07
4.66249e-07
4.14819e-07
1.55062e-06
8.18555e-07
4.80556e-07
1.38811e-06
4.60159e-07
1.48157e-06
3.02415e-07
3.22968e-07
5.79264e-07
4.96888e-07
3.76715e-07
3.36935e-07
3.18632e-07
3.1006e-07
3.07047e-07
3.07535e-07
3.1029e-07
3.14419e-07
3.19216e-07
3.24254e-07
3.29067e-07
3.32717e-07
3.43125e-07
4.20381e-07
5.11881e-07
4.51951e-07
6.05935e-07
1.39082e-06
7.78916e-07
8.05897e-07
1.2655e-06
1.27131e-06
6.52737e-07
8.28477e-07
6.15817e-07
4.17853e-07
3.42148e-07
3.02561e-07
2.79526e-07
2.6537e-07
2.56419e-07
2.50657e-07
2.46793e-07
2.43967e-07
2.41556e-07
2.39285e-07
2.36921e-07
2.34762e-07
2.32197e-07
3.14233e-07
4.01234e-07
5.5033e-07
7.10656e-07
1.21834e-06
1.62491e-06
5.67667e-07
1.2989e-06
8.65201e-07
4.8962e-07
4.08954e-07
3.68252e-07
3.40849e-07
3.19873e-07
3.03182e-07
2.89862e-07
2.7929e-07
2.70995e-07
2.64633e-07
2.59852e-07
2.56342e-07
2.5387e-07
2.52374e-07
2.5179e-07
2.51536e-07
2.52821e-07
3.34299e-07
4.23606e-07
5.96991e-07
9.10228e-07
1.67914e-06
1.77847e-06
3.22254e-07
7.44628e-07
7.12196e-07
5.05651e-07
4.46284e-07
4.13352e-07
3.88413e-07
3.66663e-07
3.47112e-07
3.29455e-07
3.13452e-07
2.98862e-07
2.85541e-07
2.73369e-07
2.62205e-07
2.51973e-07
2.42765e-07
2.34693e-07
2.26788e-07
2.19567e-07
2.90645e-07
3.82141e-07
5.73236e-07
1.19594e-06
2.54538e-06
3.84543e-07
8.58212e-07
7.19856e-07
5.32582e-07
4.59876e-07
4.38661e-07
4.23114e-07
4.06193e-07
3.88017e-07
3.69826e-07
3.52499e-07
3.3615e-07
3.2076e-07
3.06311e-07
2.92821e-07
2.80266e-07
2.6862e-07
2.5806e-07
2.48795e-07
2.39593e-07
2.29522e-07
2.9654e-07
3.91718e-07
7.18401e-07
1.23742e-06
5.84862e-07
1.97441e-07
2.8147e-07
5.06779e-07
3.45896e-07
3.64705e-07
3.90998e-07
4.05216e-07
4.05579e-07
3.969e-07
3.84093e-07
3.69756e-07
3.55303e-07
3.41246e-07
3.27776e-07
3.1506e-07
3.03066e-07
2.91781e-07
2.81431e-07
2.72266e-07
2.62958e-07
2.52775e-07
3.1545e-07
4.06871e-07
3.39834e-07
1.8799e-07
7.12218e-07
1.3133e-07
9.38243e-07
2.28359e-07
2.40338e-07
2.85518e-07
3.38661e-07
3.81986e-07
4.05695e-07
4.11649e-07
4.06931e-07
3.97365e-07
3.85863e-07
3.73645e-07
3.61307e-07
3.49122e-07
3.37331e-07
3.25897e-07
3.15099e-07
3.05297e-07
2.95232e-07
2.84005e-07
3.41402e-07
4.31817e-07
2.07795e-07
3.36128e-07
4.48703e-07
6.64488e-07
2.22396e-07
1.97781e-07
2.30031e-07
2.73348e-07
3.27357e-07
3.84756e-07
4.30123e-07
4.54417e-07
4.60868e-07
4.56845e-07
4.47502e-07
4.35483e-07
4.22298e-07
4.08702e-07
3.95e-07
3.81138e-07
3.67526e-07
3.54774e-07
3.41823e-07
3.27814e-07
3.77381e-07
4.68185e-07
2.46628e-07
4.0339e-07
2.9555e-07
2.58737e-07
2.14073e-07
2.46525e-07
2.81928e-07
3.21602e-07
3.72439e-07
4.38432e-07
5.08686e-07
5.62137e-07
5.89257e-07
5.95452e-07
5.88821e-07
5.74496e-07
5.55374e-07
5.34296e-07
5.12338e-07
4.89513e-07
4.66784e-07
4.45475e-07
4.24267e-07
4.02867e-07
4.40488e-07
5.26786e-07
3.42182e-07
3.88723e-07
3.12063e-07
2.70725e-07
2.93118e-07
3.25791e-07
3.63829e-07
4.11621e-07
4.85858e-07
6.29716e-07
9.93219e-07
1.32411e-06
9.71468e-07
9.06359e-07
9.03223e-07
9.39542e-07
1.0238e-06
1.19942e-06
1.83297e-06
1.3371e-06
9.79686e-07
8.15653e-07
7.07949e-07
6.29331e-07
6.22538e-07
6.93208e-07
4.13187e-07
4.36805e-07
3.54376e-07
3.3469e-07
3.68449e-07
4.06287e-07
4.61301e-07
5.65668e-07
1.03908e-06
6.47977e-07
4.6661e-07
3.84601e-07
4.83105e-07
3.53962e-07
3.23492e-07
3.09777e-07
3.06541e-07
3.64735e-07
3.27985e-07
5.94202e-07
5.04929e-07
4.47835e-07
4.47223e-07
4.5995e-07
5.01242e-07
6.16402e-07
4.33773e-07
4.58897e-07
3.84106e-07
3.76837e-07
4.19361e-07
4.73811e-07
5.91252e-07
1.72385e-06
4.41892e-07
4.92287e-07
3.10357e-07
3.19273e-07
2.3927e-07
2.23173e-07
2.14596e-07
2.10661e-07
2.15827e-07
2.46684e-07
4.56098e-07
2.78155e-07
1.94391e-07
1.74952e-07
1.70975e-07
1.73995e-07
2.50059e-07
3.28099e-07
4.17552e-07
4.54897e-07
3.8509e-07
3.90127e-07
4.38432e-07
5.17548e-07
1.17459e-06
4.83096e-07
7.95794e-07
2.84129e-07
2.77124e-07
2.73853e-07
2.68034e-07
2.60547e-07
2.52004e-07
2.42717e-07
2.33078e-07
2.23333e-07
2.1331e-07
2.02812e-07
1.92413e-07
1.82465e-07
1.7249e-07
1.63595e-07
2.05323e-07
2.81069e-07
3.92398e-07
4.45674e-07
3.66484e-07
3.72438e-07
4.01435e-07
4.79034e-07
4.24131e-07
2.10756e-07
4.11928e-07
3.4662e-07
3.2581e-07
3.11416e-07
2.99468e-07
2.88841e-07
2.78969e-07
2.69522e-07
2.60411e-07
2.51525e-07
2.42556e-07
2.33277e-07
2.24026e-07
2.14969e-07
2.05565e-07
1.9642e-07
2.26569e-07
2.98065e-07
3.76941e-07
4.40475e-07
3.22617e-07
3.06563e-07
2.81522e-07
2.5957e-07
2.31794e-07
2.00698e-07
1.80469e-06
5.11354e-07
3.99323e-07
3.53462e-07
3.27463e-07
3.09997e-07
2.96746e-07
2.85784e-07
2.7619e-07
2.67419e-07
2.58936e-07
2.50432e-07
2.42063e-07
2.33924e-07
2.25504e-07
2.17353e-07
2.40373e-07
3.08957e-07
3.70544e-07
4.34313e-07
2.50824e-07
2.13679e-07
1.68037e-07
1.26048e-07
9.62373e-08
6.27824e-07
2.04838e-07
1.66717e-06
5.76905e-07
4.18537e-07
3.61954e-07
3.32543e-07
3.13924e-07
3.00438e-07
2.89684e-07
2.80478e-07
2.71999e-07
2.63791e-07
2.55858e-07
2.48224e-07
2.40395e-07
2.32847e-07
2.49639e-07
3.15825e-07
3.62991e-07
4.27755e-07
1.96087e-07
1.60697e-07
1.35696e-07
1.18415e-07
1.04404e-07
9.00169e-08
4.55067e-07
1.98034e-07
1.33863e-06
5.29235e-07
4.01106e-07
3.54644e-07
3.30128e-07
3.143e-07
3.02599e-07
2.93052e-07
2.84553e-07
2.76516e-07
2.68822e-07
2.6144e-07
2.53915e-07
2.4665e-07
2.57811e-07
3.2252e-07
3.54853e-07
4.55501e-07
2.12243e-07
1.60947e-07
1.54652e-07
1.5271e-07
1.52282e-07
1.50056e-07
1.45148e-07
3.12707e-07
4.89272e-07
9.62363e-07
4.3177e-07
3.67612e-07
3.40376e-07
3.24461e-07
3.1325e-07
3.04268e-07
2.96295e-07
2.88716e-07
2.81372e-07
2.74223e-07
2.66877e-07
2.59739e-07
2.65893e-07
3.30084e-07
3.69762e-07
6.6237e-07
3.13268e-07
1.93432e-07
1.97664e-07
2.04115e-07
2.1172e-07
2.19834e-07
2.30467e-07
3.17569e-07
1.79682e-07
5.66813e-07
4.3093e-07
3.63232e-07
3.40778e-07
3.28615e-07
3.20051e-07
3.12924e-07
3.06271e-07
2.99627e-07
2.92904e-07
2.86119e-07
2.78955e-07
2.71899e-07
2.73743e-07
3.3819e-07
5.13835e-07
4.5849e-07
5.87219e-07
2.41578e-07
2.52535e-07
2.6486e-07
2.79526e-07
2.99372e-07
3.35886e-07
5.75536e-07
2.27966e-07
5.97348e-07
3.83131e-07
3.44723e-07
3.3399e-07
3.28281e-07
3.23717e-07
3.19218e-07
3.14346e-07
3.08917e-07
3.02979e-07
2.96645e-07
2.89672e-07
2.82673e-07
2.80863e-07
3.45984e-07
4.87767e-07
1.79645e-07
5.71245e-07
2.93848e-07
3.11268e-07
3.30628e-07
3.56547e-07
4.01351e-07
5.29003e-07
7.84085e-07
1.88513e-07
4.24785e-07
3.33185e-07
3.27792e-07
3.28002e-07
3.27965e-07
3.26865e-07
3.24634e-07
3.21294e-07
3.16899e-07
3.11611e-07
3.05627e-07
2.98757e-07
2.91742e-07
2.86753e-07
3.52522e-07
4.20776e-07
1.98651e-07
4.44864e-07
3.44352e-07
3.68715e-07
3.9955e-07
4.52202e-07
5.94014e-07
1.01252e-06
2.63323e-07
4.78262e-07
3.10286e-07
3.15108e-07
3.22914e-07
3.28133e-07
3.30821e-07
3.31449e-07
3.30379e-07
3.27827e-07
3.23952e-07
3.18957e-07
3.13077e-07
3.06139e-07
2.99001e-07
2.91029e-07
3.56972e-07
4.27304e-07
2.71799e-07
4.18684e-07
3.88219e-07
4.22204e-07
4.77869e-07
6.2864e-07
1.06898e-06
2.93319e-07
4.43781e-07
2.88088e-07
3.03557e-07
3.17897e-07
3.27555e-07
3.33407e-07
3.36428e-07
3.3728e-07
3.3636e-07
3.33894e-07
3.30043e-07
3.24999e-07
3.18996e-07
3.11846e-07
3.04509e-07
2.93458e-07
3.5875e-07
4.40678e-07
3.19938e-07
4.0683e-07
4.22522e-07
4.74769e-07
6.0708e-07
1.5261e-06
3.02724e-07
4.06814e-07
2.75197e-07
2.95794e-07
3.13936e-07
3.2682e-07
3.35209e-07
3.4016e-07
3.42552e-07
3.4296e-07
3.41712e-07
3.38989e-07
3.34921e-07
3.29667e-07
3.23449e-07
3.16043e-07
3.08508e-07
2.94064e-07
3.57696e-07
4.53705e-07
3.59405e-07
4.03811e-07
4.51142e-07
5.47299e-07
1.29014e-06
3.4224e-07
6.1074e-07
2.71349e-07
2.90376e-07
3.09318e-07
3.24201e-07
3.34917e-07
3.4191e-07
3.4591e-07
3.47626e-07
3.47546e-07
3.45937e-07
3.42935e-07
3.38641e-07
3.33191e-07
3.2679e-07
3.19174e-07
3.11497e-07
2.93226e-07
3.54199e-07
4.60262e-07
3.75977e-07
4.02668e-07
4.84031e-07
7.65116e-07
5.4912e-07
2.84668e-07
2.77997e-07
2.87038e-07
3.04003e-07
3.19111e-07
3.31534e-07
3.408e-07
3.46909e-07
3.50324e-07
3.51629e-07
3.51254e-07
3.49432e-07
3.46268e-07
3.41842e-07
3.36272e-07
3.29759e-07
3.21995e-07
3.14222e-07
2.91666e-07
3.49161e-07
4.57095e-07
3.81789e-07
4.06864e-07
5.43088e-07
9.27057e-07
1.64768e-07
3.26826e-07
2.8827e-07
3.00411e-07
3.13695e-07
3.26196e-07
3.37104e-07
3.45574e-07
3.51272e-07
3.54456e-07
3.55616e-07
3.55147e-07
3.53259e-07
3.5004e-07
3.45555e-07
3.39914e-07
3.33317e-07
3.25425e-07
3.1755e-07
2.90287e-07
3.43781e-07
4.44046e-07
3.82015e-07
4.2082e-07
7.35297e-07
5.98722e-07
3.40747e-07
3.02356e-07
3.0146e-07
3.11116e-07
3.21754e-07
3.32561e-07
3.42597e-07
3.50744e-07
3.56398e-07
3.59631e-07
3.60853e-07
3.60435e-07
3.58574e-07
3.5535e-07
3.5082e-07
3.45095e-07
3.38381e-07
3.30318e-07
3.22271e-07
2.89969e-07
3.39266e-07
4.13489e-07
3.74155e-07
4.50047e-07
7.33496e-07
1.57362e-07
4.16412e-07
3.1058e-07
3.13105e-07
3.20472e-07
3.29294e-07
3.3906e-07
3.4875e-07
3.57029e-07
3.63025e-07
3.66614e-07
3.6812e-07
3.67896e-07
3.66143e-07
3.6294e-07
3.5835e-07
3.52492e-07
3.4559e-07
3.3728e-07
3.28958e-07
2.91393e-07
3.3659e-07
3.63833e-07
3.55438e-07
5.08148e-07
7.93e-07
1.781e-07
3.48083e-07
3.19913e-07
3.22115e-07
3.27809e-07
3.35498e-07
3.44849e-07
3.54813e-07
3.63846e-07
3.70764e-07
3.75196e-07
3.77355e-07
3.7758e-07
3.76092e-07
3.72991e-07
3.68361e-07
3.62346e-07
3.55199e-07
3.4658e-07
3.37889e-07
2.94953e-07
3.36361e-07
3.06348e-07
3.2785e-07
6.62197e-07
8.19996e-07
4.14842e-07
3.37918e-07
3.24586e-07
3.26017e-07
3.30643e-07
3.37834e-07
3.47454e-07
3.58487e-07
3.69176e-07
3.7794e-07
3.84051e-07
3.87542e-07
3.88722e-07
3.87853e-07
3.85085e-07
3.80553e-07
3.74448e-07
3.67074e-07
3.58141e-07
3.49042e-07
3.00739e-07
3.3878e-07
2.57899e-07
3.01323e-07
8.25724e-07
2.21013e-07
6.14864e-07
3.29238e-07
3.20767e-07
3.21601e-07
3.25653e-07
3.32847e-07
3.43322e-07
3.56231e-07
3.6967e-07
3.81576e-07
3.90672e-07
3.96644e-07
3.99704e-07
4.00151e-07
3.98221e-07
3.94135e-07
3.88173e-07
3.80717e-07
3.71573e-07
3.62112e-07
3.08553e-07
3.43656e-07
2.26823e-07
2.87853e-07
5.88381e-07
7.08416e-08
3.9728e-07
3.1258e-07
3.0627e-07
3.06743e-07
3.10464e-07
3.17767e-07
3.29173e-07
3.4425e-07
3.61223e-07
3.77605e-07
3.91357e-07
4.0151e-07
4.07951e-07
4.10932e-07
4.10772e-07
4.07822e-07
4.02498e-07
3.95307e-07
3.86203e-07
3.76548e-07
3.17957e-07
3.5047e-07
2.09982e-07
2.94443e-07
5.27819e-07
1.80885e-07
3.31457e-07
2.87196e-07
2.82138e-07
2.82359e-07
2.85651e-07
2.92602e-07
3.0413e-07
3.2048e-07
3.40518e-07
3.61805e-07
3.81589e-07
3.97877e-07
4.09777e-07
4.17175e-07
4.2034e-07
4.19734e-07
4.15948e-07
4.09677e-07
4.01087e-07
3.91576e-07
3.28328e-07
3.58436e-07
1.98859e-07
3.24062e-07
5.14394e-07
2.34089e-07
2.84523e-07
2.56501e-07
2.52311e-07
2.52288e-07
2.54889e-07
2.60746e-07
2.70998e-07
2.86562e-07
3.07385e-07
3.31932e-07
3.57462e-07
3.81041e-07
4.00497e-07
4.14727e-07
4.23499e-07
4.27164e-07
4.2643e-07
4.22209e-07
4.14957e-07
4.06185e-07
3.38898e-07
3.66567e-07
1.85783e-07
3.88016e-07
6.0277e-07
2.96699e-07
2.43772e-07
2.2414e-07
2.20648e-07
2.20438e-07
2.2226e-07
2.26598e-07
2.34529e-07
2.47298e-07
2.65811e-07
2.89987e-07
3.18277e-07
3.4786e-07
3.75525e-07
3.98643e-07
4.15696e-07
4.26293e-07
4.30915e-07
4.30571e-07
4.26033e-07
4.19007e-07
3.48733e-07
3.73668e-07
1.67692e-07
5.63484e-07
6.00655e-07
4.58154e-07
2.06446e-07
1.91772e-07
1.88875e-07
1.88594e-07
1.89793e-07
1.9273e-07
1.98231e-07
2.07451e-07
2.2167e-07
2.41923e-07
2.68363e-07
2.99676e-07
3.33045e-07
3.64883e-07
3.91953e-07
4.12234e-07
4.25162e-07
4.31342e-07
4.31661e-07
4.2803e-07
3.56564e-07
3.78161e-07
1.45533e-07
7.43473e-07
1.1522e-07
6.31866e-07
1.7215e-07
1.60572e-07
1.58082e-07
1.57749e-07
1.5849e-07
1.60353e-07
1.63902e-07
1.69999e-07
1.7977e-07
1.94564e-07
2.15631e-07
2.43462e-07
2.77062e-07
3.13671e-07
3.49367e-07
3.80349e-07
4.04107e-07
4.19863e-07
4.27949e-07
4.30178e-07
3.6049e-07
3.77829e-07
1.23916e-07
3.9583e-07
4.9447e-08
3.2103e-07
1.42751e-07
1.33203e-07
1.30873e-07
1.30383e-07
1.30692e-07
1.31679e-07
1.3374e-07
1.37471e-07
1.43643e-07
1.53355e-07
1.68036e-07
1.89124e-07
2.17404e-07
2.52207e-07
2.90955e-07
3.29613e-07
3.64017e-07
3.91245e-07
4.09994e-07
4.21148e-07
3.57754e-07
3.69801e-07
1.08085e-07
2.83981e-07
5.34287e-08
2.26161e-07
1.20546e-07
1.12591e-07
1.10281e-07
1.09569e-07
1.09472e-07
1.09689e-07
1.10544e-07
1.12514e-07
1.16054e-07
1.21836e-07
1.30951e-07
1.44854e-07
1.65062e-07
1.92564e-07
2.27038e-07
2.66284e-07
3.06485e-07
3.43421e-07
3.73703e-07
3.96237e-07
3.44976e-07
3.51307e-07
9.94555e-08
2.21262e-07
5.45039e-08
1.74666e-07
1.06001e-07
9.95189e-08
9.71425e-08
9.62109e-08
9.58655e-08
9.54852e-08
9.53559e-08
9.59993e-08
9.77028e-08
1.00758e-07
1.05798e-07
1.13883e-07
1.26404e-07
1.44845e-07
1.70317e-07
2.02872e-07
2.40876e-07
2.81078e-07
3.19408e-07
3.52843e-07
3.19108e-07
3.21103e-07
9.62271e-08
1.81193e-07
5.37851e-08
1.43807e-07
9.78784e-08
9.27383e-08
9.00235e-08
8.87044e-08
8.83272e-08
8.76604e-08
8.68056e-08
8.64508e-08
8.68973e-08
8.8191e-08
9.05748e-08
9.46813e-08
1.01497e-07
1.12272e-07
1.28362e-07
1.50946e-07
1.80429e-07
2.15877e-07
2.54759e-07
2.93992e-07
2.79917e-07
2.81218e-07
9.50902e-08
1.54411e-07
5.73252e-08
1.27018e-07
9.45994e-08
9.06425e-08
8.71323e-08
8.48739e-08
8.45535e-08
8.40472e-08
8.28687e-08
8.18326e-08
8.14053e-08
8.15527e-08
8.22667e-08
8.38613e-08
8.69643e-08
9.24501e-08
1.0139e-07
1.14999e-07
1.34454e-07
1.60456e-07
1.92652e-07
2.29575e-07
2.31282e-07
2.35818e-07
9.25107e-08
1.35052e-07
6.60269e-08
1.19641e-07
9.32382e-08
9.09139e-08
8.65617e-08
8.25087e-08
8.18921e-08
8.19604e-08
8.11218e-08
7.9965e-08
7.91101e-08
7.85781e-08
7.82741e-08
7.83464e-08
7.91971e-08
8.14351e-08
8.58087e-08
9.31969e-08
1.04652e-07
1.21246e-07
1.43736e-07
1.72184e-07
1.81114e-07
1.89938e-07
8.77093e-08
1.22119e-07
7.34876e-08
1.15189e-07
8.91862e-08
9.06682e-08
8.72188e-08
8.11279e-08
7.90916e-08
7.92839e-08
7.91445e-08
7.85021e-08
7.77814e-08
7.70166e-08
7.61448e-08
7.53183e-08
7.49048e-08
7.53664e-08
7.72073e-08
8.09794e-08
8.73297e-08
9.70104e-08
1.10762e-07
1.29186e-07
1.38187e-07
1.49378e-07
8.47265e-08
1.19341e-07
7.17282e-08
1.08187e-07
7.89121e-08
8.77398e-08
8.88721e-08
8.32089e-08
7.88215e-08
7.72844e-08
7.67987e-08
7.65318e-08
7.62107e-08
7.55509e-08
7.44513e-08
7.31436e-08
7.20775e-08
7.16731e-08
7.22726e-08
7.41428e-08
7.75284e-08
8.27144e-08
9.00847e-08
1.0027e-07
1.07179e-07
1.19152e-07
8.86484e-08
1.33338e-07
7.91666e-08
1.04346e-07
6.20853e-08
7.94619e-08
8.62625e-08
8.71191e-08
8.33029e-08
7.90276e-08
7.63244e-08
7.52064e-08
7.47943e-08
7.42016e-08
7.30868e-08
7.16727e-08
7.04395e-08
6.9795e-08
6.99277e-08
7.08217e-08
7.23544e-08
7.44767e-08
7.74884e-08
8.22865e-08
8.84128e-08
1.00976e-07
9.52059e-08
2.33146e-07
2.18332e-07
1.50738e-07
4.30861e-08
5.80694e-08
6.818e-08
7.68795e-08
8.16931e-08
7.98801e-08
7.62612e-08
7.40001e-08
7.29716e-08
7.21503e-08
7.10463e-08
6.98057e-08
6.88425e-08
6.84515e-08
6.85862e-08
6.89181e-08
6.90867e-08
6.90955e-08
6.96741e-08
7.21518e-08
7.83291e-08
9.02234e-08
8.41475e-08
1.99882e-07
1.74691e-07
4.3428e-07
5.9271e-08
3.32442e-08
4.69868e-08
5.64709e-08
6.58549e-08
6.99566e-08
6.93928e-08
6.80051e-08
6.70725e-08
6.62807e-08
6.54156e-08
6.46581e-08
6.43231e-08
6.44721e-08
6.47361e-08
6.45373e-08
6.36794e-08
6.27556e-08
6.30463e-08
6.60491e-08
7.02227e-08
7.75345e-08
1.93799e-08
1.0622e-07
1.3684e-07
2.06912e-07
2.99598e-07
8.28508e-08
5.66748e-08
5.88297e-08
6.14893e-08
6.38095e-08
6.4433e-08
6.422e-08
6.38308e-08
6.3321e-08
6.28263e-08
6.26244e-08
6.28855e-08
6.33123e-08
6.31913e-08
6.20706e-08
6.04967e-08
5.97971e-08
6.10999e-08
6.45562e-08
6.66789e-08
7.10003e-08
4.02762e-08
2.1548e-08
2.7278e-07
1.47813e-07
3.54812e-07
2.12789e-07
1.07414e-07
8.08678e-08
7.04972e-08
6.56085e-08
6.35241e-08
6.2763e-08
6.24046e-08
6.21586e-08
6.21601e-08
6.26033e-08
6.33329e-08
6.35665e-08
6.25308e-08
6.06007e-08
5.92945e-08
6.01397e-08
6.28207e-08
6.05905e-08
6.44116e-08
7.61049e-08
1.86536e-08
3.88571e-08
1.12602e-07
3.94758e-07
1.14283e-07
1.12807e-07
8.03643e-08
7.23385e-08
6.55314e-08
5.91545e-08
5.54897e-08
5.40918e-08
5.37118e-08
5.39068e-08
5.46473e-08
5.58735e-08
5.69389e-08
5.67535e-08
5.52087e-08
5.37996e-08
5.42696e-08
5.71901e-08
6.03048e-08
5.44776e-08
4.84875e-08
5.29808e-08
1.72696e-08
1.02184e-07
2.82172e-08
3.62828e-08
2.10472e-07
8.488e-08
1.46228e-08
8.42088e-09
1.52996e-08
1.49969e-08
1.2117e-08
1.09572e-08
1.08275e-08
1.01608e-08
8.58673e-09
7.10259e-09
6.66603e-09
7.35043e-09
8.13666e-09
7.51551e-09
6.03102e-09
5.71076e-09
7.09994e-09
1.49751e-08
1.46726e-08
2.12683e-08
2.15461e-06
2.55812e-06
2.89606e-06
4.22805e-06
3.24251e-06
2.79198e-06
2.67765e-06
2.58774e-06
2.56179e-06
2.57356e-06
2.58621e-06
2.59081e-06
2.59683e-06
2.61494e-06
2.6438e-06
2.66986e-06
2.67798e-06
2.67189e-06
2.68049e-06
2.73073e-06
2.80728e-06
2.79864e-06
2.60716e-06
2.59908e-06
3.41439e-06
3.77731e-06
2.92585e-05
8.137e-05
8.44639e-05
9.33748e-05
9.43303e-05
9.65e-05
9.73932e-05
9.85975e-05
0.000100608
0.000103123
0.00010313
0.000102594
0.000102315
0.000102217
0.000102262
0.000102355
0.000102334
0.000102123
0.000101858
0.00010164
0.000101306
0.000100865
0.000100482
8.65836e-05
8.60885e-05
3.23533e-05
0.0655549
0.0656237
0.0653635
0.0653148
0.0653931
0.0654178
0.0654136
0.0654294
0.0654574
0.0654818
0.0655012
0.065519
0.0655366
0.0655527
0.0655662
0.0655785
0.0655926
0.06561
0.0656273
0.0656387
0.0656441
0.0656592
0.0657022
0.0657241
0.0656552
0.065469
0.00151874
0.0014774
0.00147678
0.00146727
0.00146657
0.00146567
0.00146475
0.00146409
0.00146347
0.00146259
0.00146304
0.00146375
0.00146431
0.00146475
0.00146505
0.00146528
0.00146558
0.00146604
0.00146656
0.00146701
0.00146741
0.00146786
0.00146846
0.00147688
0.00147738
0.00151873
1.08089e-06
1.12846e-06
1.05638e-06
1.05399e-06
1.05335e-06
1.05245e-06
1.05235e-06
1.05241e-06
1.05243e-06
1.0524e-06
1.05232e-06
1.05227e-06
1.05227e-06
1.05231e-06
1.05242e-06
1.05263e-06
1.05289e-06
1.05309e-06
1.05311e-06
1.05312e-06
1.05376e-06
1.05564e-06
1.05837e-06
1.06036e-06
1.13156e-06
1.07757e-06
7.15011e-07
6.66662e-07
6.69422e-07
6.66689e-07
6.66121e-07
6.65646e-07
6.65566e-07
6.656e-07
6.65613e-07
6.65613e-07
6.65626e-07
6.65656e-07
6.65692e-07
6.65728e-07
6.65803e-07
6.65977e-07
6.66237e-07
6.66419e-07
6.66283e-07
6.65697e-07
6.64715e-07
6.63432e-07
6.63577e-07
6.65045e-07
6.64143e-07
7.14031e-07
9.90336e-10
1.30046e-09
1.24485e-09
1.33852e-09
1.32083e-09
1.31735e-09
1.31547e-09
1.31516e-09
1.31616e-09
1.31827e-09
1.32104e-09
1.32344e-09
1.32436e-09
1.3239e-09
1.32466e-09
1.33064e-09
1.34357e-09
1.36063e-09
1.3782e-09
1.39334e-09
1.38459e-09
1.29333e-09
1.25544e-09
1.14928e-09
1.21435e-09
1.21268e-09
5.74995e-10
4.4441e-10
4.82699e-10
4.46193e-10
4.41973e-10
4.40323e-10
4.41379e-10
4.41762e-10
4.40587e-10
4.38354e-10
4.35825e-10
4.33902e-10
4.33405e-10
4.34293e-10
4.35203e-10
4.34669e-10
4.33345e-10
4.32311e-10
4.24634e-10
3.92525e-10
3.41762e-10
3.3691e-10
2.91963e-10
3.87621e-10
4.35039e-10
4.93035e-10
3.16999e-10
3.275e-10
2.66461e-10
2.75917e-10