/*--------------------------------*- C++ -*----------------------------------*\
  =========                 |
  \\      /  F ield         | OpenFOAM: The Open Source CFD Toolbox
   \\    /   O peration     | Website:  https://openfoam.org
    \\  /    A nd           | Version:  7
     \\/     M anipulation  |
\*---------------------------------------------------------------------------*/
FoamFile
{
    version     2.0;
    format      ascii;
    class       volScalarField;
    location    "0.01";
    object      pPrime.particles-SchneiderbauerFrictional;
}
// * * * * * * * * * * * * * * * * * * * * * * * * * * * * * * * * * * * * * //

dimensions      [1 -1 -2 0 0 0 0];

internalField   nonuniform List<scalar> 
10790
(
2.18423e-07
3.62193e-07
6.37107e-07
1.02014e-06
1.66442e-06
2.89579e-06
5.26067e-06
1.03164e-05
2.36519e-05
5.58114e-05
0.000236377
0.00106558
0.00160025
0.0125727
0.00109246
0.000866192
0.000769306
0.000713348
0.000680616
0.000662424
0.000652984
0.000648482
0.000646246
0.000644589
0.000643213
0.000646034
1.81733e-07
1.95395e-07
2.00119e-07
2.21676e-07
3.03024e-07
4.78617e-07
8.69448e-07
1.93961e-06
4.91376e-06
1.85215e-05
0.000190959
0.000326139
0.000109084
0.00470052
0.000344428
0.000172722
8.59661e-05
4.68124e-05
2.71e-05
1.63617e-05
1.02932e-05
6.78355e-06
4.74948e-06
3.67334e-06
3.00804e-06
2.48351e-06
1.63621e-07
1.74944e-07
1.79753e-07
1.99705e-07
2.67783e-07
3.75103e-07
5.49346e-07
1.05996e-06
2.26473e-06
6.24407e-06
7.71029e-05
8.6538e-05
4.34705e-05
0.00228703
0.000171742
0.000124168
8.05763e-05
5.33429e-05
3.60817e-05
2.51096e-05
1.80948e-05
1.3545e-05
1.05049e-05
8.6512e-06
7.48935e-06
6.84192e-06
1.37472e-07
1.40744e-07
1.38172e-07
1.57625e-07
2.45041e-07
3.74626e-07
4.58929e-07
4.58082e-07
7.33474e-07
2.84682e-06
6.42038e-05
7.92437e-05
3.29577e-05
0.0022939
0.000103553
8.27048e-05
6.01543e-05
4.29711e-05
3.04649e-05
2.17091e-05
1.5741e-05
1.17729e-05
9.08368e-06
7.38937e-06
6.29284e-06
5.63359e-06
1.10891e-07
1.10255e-07
9.58865e-08
8.82388e-08
1.3215e-07
2.75055e-07
5.06065e-07
4.34812e-07
2.86138e-07
8.85054e-07
4.76997e-05
6.75426e-05
3.11588e-05
0.0019933
7.12911e-05
5.80867e-05
4.57994e-05
3.4482e-05
2.52074e-05
1.82446e-05
1.32228e-05
9.70961e-06
7.30016e-06
5.7534e-06
4.83563e-06
4.29234e-06
8.78503e-08
9.5873e-08
8.85256e-08
8.67931e-08
9.67979e-08
1.29405e-07
3.12637e-07
5.72101e-07
4.47771e-07
5.32294e-07
3.53822e-05
5.24834e-05
2.79148e-05
0.0015473
5.29188e-05
4.47619e-05
3.68187e-05
2.85602e-05
2.13213e-05
1.557e-05
1.1263e-05
8.08178e-06
5.85264e-06
4.37783e-06
3.45363e-06
2.96905e-06
5.53536e-08
6.6265e-08
6.56953e-08
8.87168e-08
1.0203e-07
9.33113e-08
1.22031e-07
3.15753e-07
3.89369e-07
3.82654e-07
2.57451e-05
4.20684e-05
2.51827e-05
0.00108539
4.11461e-05
3.6728e-05
3.09015e-05
2.4413e-05
1.8487e-05
1.35328e-05
9.72902e-06
6.81526e-06
4.64054e-06
3.1649e-06
2.24038e-06
1.78497e-06
3.27832e-08
3.50117e-08
3.32897e-08
7.77599e-08
9.22526e-08
5.29761e-08
3.22905e-08
1.21511e-07
3.02378e-07
3.97966e-07
1.87396e-05
6.29385e-05
2.65627e-05
0.000609186
3.47493e-05
3.13278e-05
2.6618e-05
2.13731e-05
1.64105e-05
1.20057e-05
8.41802e-06
5.66252e-06
3.59201e-06
2.12299e-06
1.21079e-06
7.75572e-07
3.02702e-08
2.28619e-08
1.35492e-08
5.73227e-08
9.59458e-08
7.22428e-08
3.69034e-08
8.39448e-08
2.49229e-07
4.38634e-07
1.46036e-05
2.37258e-05
4.31189e-05
9.78605e-05
3.19096e-05
3.03302e-05
2.84846e-05
2.6656e-05
2.51608e-05
2.39905e-05
2.31931e-05
2.27451e-05
2.25379e-05
2.24886e-05
2.2476e-05
2.23305e-05
3.1353e-08
1.82736e-08
1.07091e-08
3.4381e-08
7.51526e-08
8.23936e-08
5.47098e-08
8.34379e-08
1.88565e-07
3.04533e-07
4.13558e-07
2.779e-05
5.44897e-07
0.000267315
1.97865e-05
6.18795e-05
0.000166264
0.000289852
0.00041243
0.000522471
0.000625029
0.000720126
0.00080198
0.000864839
0.000899379
0.000893183
2.14841e-08
6.92041e-09
1.22876e-08
1.60563e-08
3.7846e-08
6.29557e-08
5.90742e-08
8.31839e-08
1.30637e-07
2.75317e-07
6.8038e-07
2.74918e-06
9.1924e-06
4.49777e-06
3.13258e-06
4.14644e-06
5.02585e-06
5.95322e-06
7.3868e-06
9.02671e-06
1.07921e-05
1.25848e-05
1.4225e-05
1.55292e-05
1.62613e-05
1.61921e-05
1.35631e-08
6.5423e-09
1.77837e-08
8.165e-09
1.20212e-08
3.76182e-08
5.78376e-08
8.6612e-08
1.08867e-07
1.74594e-07
3.38388e-07
7.0406e-07
3.54287e-06
4.88468e-07
4.35416e-06
1.00422e-05
1.31146e-05
1.59915e-05
1.99883e-05
2.38005e-05
2.75102e-05
3.08456e-05
3.3578e-05
3.57022e-05
3.7092e-05
3.74926e-05
9.05803e-09
1.48174e-08
1.83446e-08
7.21155e-09
5.43806e-09
2.02481e-08
4.58382e-08
7.37779e-08
8.88091e-08
1.07597e-07
1.59962e-07
2.2987e-07
1.87712e-07
8.42569e-07
9.49572e-08
1.88195e-06
4.94831e-06
7.8667e-06
1.07571e-05
1.34555e-05
1.60079e-05
1.8383e-05
2.04766e-05
2.20331e-05
2.30526e-05
2.33934e-05
5.24407e-09
1.46432e-08
9.39853e-09
4.72409e-09
3.82076e-09
9.90626e-09
2.75414e-08
4.62912e-08
5.77217e-08
6.69759e-08
8.0736e-08
1.00252e-07
1.05062e-07
8.28189e-08
5.17213e-08
2.79917e-08
1.40754e-08
8.54083e-09
1.05529e-08
1.97367e-08
3.28434e-08
4.75772e-08
6.75266e-08
8.06595e-08
8.74226e-08
9.09141e-08
3.1087e-09
7.08763e-09
2.32015e-09
2.27626e-09
2.64327e-09
5.851e-09
1.63895e-08
2.5541e-08
2.98791e-08
3.3946e-08
3.91143e-08
5.09974e-08
5.71465e-08
4.86486e-08
3.42796e-08
2.52036e-08
1.84343e-08
1.21384e-08
6.55237e-09
3.54662e-09
3.06745e-09
1.94993e-09
1.35173e-09
1.66748e-09
7.19468e-10
7.17975e-10
1.41084e-09
1.48966e-09
9.8838e-10
1.42186e-09
2.6855e-09
5.10309e-09
1.14131e-08
1.51494e-08
1.57823e-08
1.60641e-08
1.65791e-08
1.96904e-08
2.33066e-08
2.52234e-08
2.38964e-08
2.18343e-08
1.87692e-08
1.42314e-08
8.29738e-09
3.72622e-09
2.64422e-09
2.38583e-09
9.5201e-10
4.3909e-10
4.74058e-10
4.87432e-10
2.4573e-09
1.65452e-09
1.76226e-09
1.75353e-09
3.86122e-09
5.87991e-09
9.35533e-09
1.25413e-08
1.30459e-08
1.26789e-08
1.30836e-08
1.45931e-08
1.676e-08
1.78014e-08
1.66371e-08
1.42756e-08
1.15946e-08
8.87994e-09
6.09897e-09
3.32789e-09
1.77165e-09
1.18e-09
7.03182e-10
4.94355e-10
4.13292e-10
3.47866e-10
6.85214e-09
4.68261e-09
3.5831e-09
3.90854e-09
5.93044e-09
7.3779e-09
8.14653e-09
1.03137e-08
1.31971e-08
1.54747e-08
1.79008e-08
1.99762e-08
2.13863e-08
2.05591e-08
1.71626e-08
1.24082e-08
8.00916e-09
4.87082e-09
2.88887e-09
1.75476e-09
1.11992e-09
7.67694e-10
5.82409e-10
4.41359e-10
3.09293e-10
2.30435e-10
9.41895e-09
6.55363e-09
5.86992e-09
7.41076e-09
8.71372e-09
8.89151e-09
8.20237e-09
8.61875e-09
1.0791e-08
1.31026e-08
1.49099e-08
1.57021e-08
1.54953e-08
1.3902e-08
1.09242e-08
7.2674e-09
4.10084e-09
2.19318e-09
1.23901e-09
7.46269e-10
5.81319e-10
5.08472e-10
4.57294e-10
3.88743e-10
2.65373e-10
1.91149e-10
7.10105e-09
5.33215e-09
5.73905e-09
8.46124e-09
1.01235e-08
9.56467e-09
8.30925e-09
7.77051e-09
8.3641e-09
9.14967e-09
9.40832e-09
8.90126e-09
7.92985e-09
6.70104e-09
5.29783e-09
3.71684e-09
2.16015e-09
1.12955e-09
6.86173e-10
4.68972e-10
4.21132e-10
4.29486e-10
4.14946e-10
3.90001e-10
2.86444e-10
2.27428e-10
3.22673e-09
2.74618e-09
3.30772e-09
5.55269e-09
7.57589e-09
7.79807e-09
7.18236e-09
6.78025e-09
6.79909e-09
6.79455e-09
6.34361e-09
5.44438e-09
4.4188e-09
3.52857e-09
2.90436e-09
2.42183e-09
1.84199e-09
1.18559e-09
7.33553e-10
5.37514e-10
4.92744e-10
4.80126e-10
4.58483e-10
4.42958e-10
3.55102e-10
3.22295e-10
1.17974e-09
1.21816e-09
1.55226e-09
2.42323e-09
3.55129e-09
4.31084e-09
4.69903e-09
4.99726e-09
5.25811e-09
5.33105e-09
5.02803e-09
4.35324e-09
3.52358e-09
2.76626e-09
2.23983e-09
1.9303e-09
1.68448e-09
1.33998e-09
9.76485e-10
7.6406e-10
6.79383e-10
6.13107e-10
5.46489e-10
4.97215e-10
4.13542e-10
4.24754e-10
7.18463e-10
8.33202e-10
1.11668e-09
1.29812e-09
1.52734e-09
2.07021e-09
2.73532e-09
3.32006e-09
3.74024e-09
3.9723e-09
3.97208e-09
3.72473e-09
3.29872e-09
2.80348e-09
2.37026e-09
2.05421e-09
1.80305e-09
1.5203e-09
1.1999e-09
9.51389e-10
7.97897e-10
6.78299e-10
5.7992e-10
5.15476e-10
4.56563e-10
5.19368e-10
9.76026e-10
1.02377e-09
1.2366e-09
1.35223e-09
1.39097e-09
1.70447e-09
2.16599e-09
2.55131e-09
2.78757e-09
2.91569e-09
2.95151e-09
2.8851e-09
2.70607e-09
2.44421e-09
2.16276e-09
1.90435e-09
1.668e-09
1.42564e-09
1.16724e-09
9.48374e-10
8.01556e-10
6.95265e-10
6.16418e-10
5.69466e-10
5.38704e-10
6.47784e-10
1.77248e-09
1.67379e-09
1.74953e-09
1.90246e-09
2.01254e-09
2.22072e-09
2.41585e-09
2.49946e-09
2.48609e-09
2.43524e-09
2.36835e-09
2.26973e-09
2.13136e-09
1.95502e-09
1.74657e-09
1.54379e-09
1.36665e-09
1.19863e-09
1.01618e-09
8.51961e-10
7.49816e-10
6.89307e-10
6.4944e-10
6.26442e-10
6.18174e-10
7.88501e-10
2.84124e-09
2.52085e-09
2.53549e-09
2.74074e-09
2.86963e-09
2.9519e-09
2.92922e-09
2.79642e-09
2.60833e-09
2.42037e-09
2.249e-09
2.08797e-09
1.9159e-09
1.72023e-09
1.52042e-09
1.33763e-09
1.18671e-09
1.06362e-09
9.42016e-10
8.27588e-10
7.4957e-10
7.04441e-10
6.78885e-10
6.63848e-10
6.81788e-10
9.11144e-10
3.76177e-09
3.18838e-09
3.22589e-09
3.50118e-09
3.5957e-09
3.5353e-09
3.34973e-09
3.09641e-09
2.8317e-09
2.59274e-09
2.3848e-09
2.1848e-09
1.96234e-09
1.73776e-09
1.53982e-09
1.36738e-09
1.22766e-09
1.12043e-09
1.03141e-09
9.52733e-10
8.90998e-10
8.47359e-10
8.15369e-10
7.82191e-10
8.12016e-10
1.06112e-09
4.31313e-09
3.54152e-09
3.58005e-09
3.8487e-09
3.87211e-09
3.72326e-09
3.4748e-09
3.19335e-09
2.91965e-09
2.67192e-09
2.44995e-09
2.23878e-09
2.03008e-09
1.83378e-09
1.65152e-09
1.47364e-09
1.30654e-09
1.18111e-09
1.10131e-09
1.04263e-09
9.9348e-10
9.5133e-10
9.09687e-10
8.5776e-10
8.94038e-10
1.16625e-09
4.54474e-09
3.67171e-09
3.62126e-09
3.7811e-09
3.70008e-09
3.50392e-09
3.26278e-09
3.01783e-09
2.78609e-09
2.57374e-09
2.37868e-09
2.19174e-09
2.00708e-09
1.82907e-09
1.65841e-09
1.49064e-09
1.32922e-09
1.19595e-09
1.09096e-09
9.99609e-10
9.19281e-10
8.50361e-10
7.87375e-10
7.33246e-10
7.94075e-10
1.11663e-09
4.54937e-09
3.65062e-09
3.45901e-09
3.48259e-09
3.3091e-09
3.08826e-09
2.86718e-09
2.66197e-09
2.47389e-09
2.30351e-09
2.1498e-09
2.00623e-09
1.8655e-09
1.72728e-09
1.59382e-09
1.46163e-09
1.32742e-09
1.19725e-09
1.07327e-09
9.55985e-10
8.49164e-10
7.5635e-10
6.76004e-10
6.19959e-10
6.83133e-10
1.00183e-09
4.32545e-09
3.45753e-09
3.16246e-09
3.09621e-09
2.88094e-09
2.65928e-09
2.45643e-09
2.27501e-09
2.11147e-09
1.96545e-09
1.83793e-09
1.72518e-09
1.61968e-09
1.51736e-09
1.41879e-09
1.32124e-09
1.21993e-09
1.11436e-09
1.00879e-09
9.05002e-10
8.05474e-10
7.15389e-10
6.37636e-10
5.82251e-10
6.32203e-10
8.93595e-10
3.84587e-09
3.07131e-09
2.76537e-09
2.67729e-09
2.47461e-09
2.27598e-09
2.09511e-09
1.93179e-09
1.78377e-09
1.65155e-09
1.53732e-09
1.43971e-09
1.3528e-09
1.27124e-09
1.19315e-09
1.11505e-09
1.03386e-09
9.50025e-10
8.65708e-10
7.81532e-10
6.99613e-10
6.24499e-10
5.61643e-10
5.16658e-10
5.54226e-10
7.84827e-10
3.17635e-09
2.54879e-09
2.3063e-09
2.24435e-09
2.08919e-09
1.93189e-09
1.78204e-09
1.64156e-09
1.51131e-09
1.39301e-09
1.28923e-09
1.20014e-09
1.12195e-09
1.04997e-09
9.81952e-10
9.15381e-10
8.47008e-10
7.75805e-10
7.03675e-10
6.33245e-10
5.67245e-10
5.08619e-10
4.62979e-10
4.32451e-10
4.64157e-10
6.71842e-10
2.45935e-09
1.99471e-09
1.83933e-09
1.81871e-09
1.7212e-09
1.6135e-09
1.50325e-09
1.39393e-09
1.28822e-09
1.18856e-09
1.09757e-09
1.01649e-09
9.43641e-10
8.75946e-10
8.1162e-10
7.49531e-10
6.87902e-10
6.2629e-10
5.66037e-10
5.09091e-10
4.57684e-10
4.13667e-10
3.81211e-10
3.62459e-10
3.97096e-10
5.69939e-10
1.82069e-09
1.4971e-09
1.41392e-09
1.42609e-09
1.37782e-09
1.31645e-09
1.2477e-09
1.17451e-09
1.09915e-09
1.02355e-09
9.49985e-10
8.8021e-10
8.14216e-10
7.50861e-10
6.89617e-10
6.30668e-10
5.73698e-10
5.189e-10
4.67392e-10
4.20566e-10
3.79989e-10
3.46712e-10
3.22761e-10
3.10242e-10
3.45915e-10
4.92944e-10
1.31834e-09
1.09766e-09
1.05868e-09
1.08731e-09
1.07171e-09
1.04496e-09
1.01095e-09
9.71178e-10
9.26357e-10
8.7708e-10
8.24611e-10
7.70549e-10
7.15777e-10
6.60589e-10
6.05653e-10
5.52153e-10
5.00891e-10
4.52603e-10
4.08289e-10
3.68997e-10
3.35749e-10
3.0924e-10
2.90185e-10
2.80152e-10
3.14962e-10
4.44231e-10
9.53175e-10
7.99873e-10
7.81941e-10
8.14045e-10
8.15569e-10
8.09748e-10
7.99014e-10
7.83622e-10
7.63059e-10
7.36708e-10
7.04686e-10
6.67948e-10
6.27549e-10
5.84427e-10
5.39827e-10
4.95335e-10
4.52284e-10
4.11743e-10
3.74685e-10
3.42031e-10
3.14513e-10
2.92667e-10
2.767e-10
2.67591e-10
3.01258e-10
4.18852e-10
7.00548e-10
5.88806e-10
5.78592e-10
6.07759e-10
6.16241e-10
6.2086e-10
6.22869e-10
6.21753e-10
6.16463e-10
6.05875e-10
5.89457e-10
5.67592e-10
5.41163e-10
5.11178e-10
4.78876e-10
4.45684e-10
4.12891e-10
3.81554e-10
3.52546e-10
3.26708e-10
3.0468e-10
2.86922e-10
2.73529e-10
2.65063e-10
2.98103e-10
4.08417e-10
5.3153e-10
4.44687e-10
4.36616e-10
4.61216e-10
4.71565e-10
4.80401e-10
4.88086e-10
4.93672e-10
4.96035e-10
4.94128e-10
4.8736e-10
4.7588e-10
4.60364e-10
4.41658e-10
4.20717e-10
3.98561e-10
3.76128e-10
3.54212e-10
3.33456e-10
3.1451e-10
2.97955e-10
2.84201e-10
2.73367e-10
2.6578e-10
2.98569e-10
4.04425e-10
4.21744e-10
3.49564e-10
3.42059e-10
3.62627e-10
3.72742e-10
3.82496e-10
3.91702e-10
3.99278e-10
4.0429e-10
4.06055e-10
4.04237e-10
3.98979e-10
3.90791e-10
3.80286e-10
3.68092e-10
3.54829e-10
3.41058e-10
3.27261e-10
3.13817e-10
3.0112e-10
2.89622e-10
2.79662e-10
2.71401e-10
2.65051e-10
2.97846e-10
4.00811e-10
3.53227e-10
2.89446e-10
2.8221e-10
2.99811e-10
3.08824e-10
3.17616e-10
3.25861e-10
3.32659e-10
3.37434e-10
3.39918e-10
3.40068e-10
3.38072e-10
3.34287e-10
3.2909e-10
3.22824e-10
3.15798e-10
3.083e-10
3.00573e-10
2.92792e-10
2.85127e-10
2.7787e-10
2.71261e-10
2.65458e-10
2.6061e-10
2.93459e-10
3.94057e-10
3.13461e-10
2.54131e-10
2.46946e-10
2.62396e-10
2.69695e-10
2.76281e-10
2.82078e-10
2.8661e-10
2.89699e-10
2.91398e-10
2.91848e-10
2.91239e-10
2.89788e-10
2.87676e-10
2.85026e-10
2.81937e-10
2.78514e-10
2.7486e-10
2.71026e-10
2.67038e-10
2.63043e-10
2.5918e-10
2.55552e-10
2.52259e-10
2.84954e-10
3.83056e-10
2.93487e-10
2.36119e-10
2.28561e-10
2.42119e-10
2.47083e-10
2.50717e-10
2.53433e-10
2.5521e-10
2.56174e-10
2.56538e-10
2.56491e-10
2.56177e-10
2.55697e-10
2.551e-10
2.54376e-10
2.53495e-10
2.52453e-10
2.5127e-10
2.49934e-10
2.48397e-10
2.46702e-10
2.44903e-10
2.43036e-10
2.41147e-10
2.73523e-10
3.68699e-10
2.8596e-10
2.29224e-10
2.20716e-10
2.32215e-10
2.34469e-10
2.35066e-10
2.3488e-10
2.34203e-10
2.33293e-10
2.32375e-10
2.31597e-10
2.31031e-10
2.30702e-10
2.30588e-10
2.30627e-10
2.30733e-10
2.30846e-10
2.3094e-10
2.30975e-10
2.30871e-10
2.30608e-10
2.30179e-10
2.29562e-10
2.28755e-10
2.6048e-10
3.52235e-10
2.83873e-10
2.27464e-10
2.1757e-10
2.26896e-10
2.26666e-10
2.24855e-10
2.22591e-10
2.20261e-10
2.18111e-10
2.16295e-10
2.14886e-10
2.13896e-10
2.13305e-10
2.13078e-10
2.13149e-10
2.13434e-10
2.13862e-10
2.14389e-10
2.1496e-10
2.15491e-10
2.15927e-10
2.16226e-10
2.16328e-10
2.16194e-10
2.46914e-10
3.34808e-10
2.80623e-10
2.25083e-10
2.13932e-10
2.21406e-10
2.1957e-10
2.16482e-10
2.13277e-10
2.10279e-10
2.07644e-10
2.05437e-10
2.03669e-10
2.02319e-10
2.01361e-10
2.00768e-10
2.00507e-10
2.00524e-10
2.00765e-10
2.01189e-10
2.01743e-10
2.02345e-10
2.02934e-10
2.03449e-10
2.03812e-10
2.03968e-10
2.33384e-10
3.17088e-10
2.71458e-10
2.17889e-10
2.06288e-10
2.12633e-10
2.10368e-10
2.07217e-10
2.04152e-10
2.01366e-10
1.98913e-10
1.96795e-10
1.94993e-10
1.93483e-10
1.92253e-10
1.91306e-10
1.90641e-10
1.90247e-10
1.90099e-10
1.90174e-10
1.90425e-10
1.90788e-10
1.91203e-10
1.91608e-10
1.91931e-10
1.92108e-10
2.20019e-10
2.99321e-10
2.55086e-10
2.04701e-10
1.93727e-10
1.99706e-10
1.97994e-10
1.95659e-10
1.9345e-10
1.91436e-10
1.89597e-10
1.87905e-10
1.86342e-10
1.84903e-10
1.83601e-10
1.82464e-10
1.81523e-10
1.80798e-10
1.80294e-10
1.80004e-10
1.799e-10
1.79934e-10
1.8006e-10
1.80229e-10
1.80379e-10
1.80459e-10
2.06775e-10
2.81561e-10
2.33763e-10
1.8739e-10
1.77805e-10
1.83893e-10
1.83205e-10
1.82015e-10
1.80878e-10
1.7978e-10
1.78673e-10
1.77531e-10
1.76352e-10
1.75155e-10
1.73974e-10
1.72853e-10
1.71839e-10
1.7097e-10
1.70266e-10
1.69738e-10
1.69373e-10
1.69141e-10
1.69015e-10
1.68964e-10
1.68944e-10
1.68924e-10
1.93644e-10
2.63879e-10
2.11565e-10
1.69341e-10
1.61311e-10
1.67625e-10
1.67908e-10
1.67692e-10
1.6741e-10
1.67026e-10
1.66501e-10
1.65826e-10
1.65021e-10
1.64119e-10
1.63166e-10
1.62207e-10
1.61288e-10
1.60448e-10
1.59714e-10
1.59102e-10
1.58612e-10
1.58233e-10
1.57954e-10
1.57762e-10
1.57637e-10
1.57562e-10
1.8073e-10
2.46439e-10
1.92119e-10
1.53543e-10
1.46779e-10
1.53184e-10
1.54063e-10
1.54378e-10
1.5452e-10
1.54479e-10
1.54246e-10
1.53835e-10
1.53279e-10
1.52616e-10
1.51887e-10
1.51127e-10
1.5037e-10
1.49646e-10
1.48976e-10
1.48379e-10
1.47861e-10
1.47423e-10
1.47071e-10
1.46808e-10
1.4663e-10
1.46539e-10
1.68202e-10
2.29453e-10
1.7722e-10
1.41488e-10
1.35526e-10
1.4179e-10
1.42811e-10
1.43191e-10
1.43341e-10
1.43294e-10
1.43073e-10
1.4271e-10
1.42241e-10
1.41697e-10
1.41106e-10
1.40487e-10
1.39858e-10
1.39233e-10
1.38628e-10
1.38055e-10
1.37527e-10
1.37054e-10
1.36651e-10
1.36334e-10
1.36113e-10
1.36004e-10
1.56193e-10
2.13078e-10
1.66684e-10
1.33066e-10
1.27487e-10
1.33388e-10
1.342e-10
1.34328e-10
1.34222e-10
1.33955e-10
1.3357e-10
1.33105e-10
1.32589e-10
1.32042e-10
1.31475e-10
1.30891e-10
1.30292e-10
1.29683e-10
1.2907e-10
1.28465e-10
1.27881e-10
1.27334e-10
1.26851e-10
1.26452e-10
1.2616e-10
1.25996e-10
1.44722e-10
1.97337e-10
1.58965e-10
1.27038e-10
1.21578e-10
1.26969e-10
1.27407e-10
1.2717e-10
1.26735e-10
1.26196e-10
1.25598e-10
1.24974e-10
1.24341e-10
1.23705e-10
1.23065e-10
1.22412e-10
1.21739e-10
1.21043e-10
1.20331e-10
1.19611e-10
1.18901e-10
1.18223e-10
1.17608e-10
1.17084e-10
1.16678e-10
1.16417e-10
1.33679e-10
1.82113e-10
1.51994e-10
1.21704e-10
1.16288e-10
1.21126e-10
1.21208e-10
1.2067e-10
1.19985e-10
1.19243e-10
1.18481e-10
1.17718e-10
1.16961e-10
1.16204e-10
1.15436e-10
1.14647e-10
1.13825e-10
1.1297e-10
1.12089e-10
1.11195e-10
1.10309e-10
1.09461e-10
1.08683e-10
1.08007e-10
1.07465e-10
1.07084e-10
1.22885e-10
1.67213e-10
1.43981e-10
1.15557e-10
1.1028e-10
1.14604e-10
1.14467e-10
1.13787e-10
1.13003e-10
1.12186e-10
1.11358e-10
1.10522e-10
1.09676e-10
1.08809e-10
1.07909e-10
1.06965e-10
1.05974e-10
1.04937e-10
1.0387e-10
1.02792e-10
1.01729e-10
1.00713e-10
9.97818e-11
9.89683e-11
9.8303e-11
9.78156e-11
1.12173e-10
1.52462e-10
1.3397e-10
1.07766e-10
1.02808e-10
1.06695e-10
1.06503e-10
1.05847e-10
1.0511e-10
1.04339e-10
1.03538e-10
1.027e-10
1.01817e-10
1.00879e-10
9.98771e-11
9.88081e-11
9.76752e-11
9.64907e-11
9.52754e-11
9.40562e-11
9.28639e-11
9.17338e-11
9.07026e-11
8.98038e-11
8.90665e-11
8.85184e-11
1.0147e-10
1.37789e-10
1.21995e-10
9.83209e-11
9.38522e-11
9.73685e-11
9.724e-11
9.67121e-11
9.61083e-11
9.54514e-11
9.47329e-11
9.39411e-11
9.30661e-11
9.21021e-11
9.10482e-11
8.99096e-11
8.86989e-11
8.74365e-11
8.615e-11
8.48708e-11
8.36325e-11
8.24706e-11
8.14201e-11
8.05123e-11
7.97731e-11
7.92272e-11
9.08266e-11
1.23274e-10
1.08824e-10
8.7837e-11
8.39468e-11
8.71259e-11
8.71011e-11
8.67248e-11
8.62641e-11
8.57265e-11
8.50976e-11
8.43649e-11
8.3522e-11
8.25691e-11
8.15136e-11
8.03687e-11
7.91546e-11
7.78974e-11
7.66283e-11
7.53804e-11
7.41867e-11
7.30806e-11
7.20935e-11
7.12523e-11
7.05792e-11
7.00945e-11
8.04109e-11
1.09126e-10
9.54902e-11
7.71622e-11
7.3848e-11
7.66927e-11
7.67469e-11
7.64816e-11
7.61195e-11
7.56612e-11
7.50929e-11
7.44061e-11
7.35999e-11
7.26812e-11
7.16637e-11
7.05667e-11
6.94142e-11
6.82346e-11
6.70589e-11
6.59185e-11
6.48433e-11
6.38621e-11
6.30011e-11
6.22821e-11
6.17225e-11
6.13386e-11
7.04501e-11
9.56254e-11
8.28651e-11
6.70243e-11
6.42209e-11
6.67211e-11
6.67977e-11
6.65771e-11
6.62493e-11
6.58161e-11
6.5269e-11
6.4606e-11
6.38323e-11
6.29603e-11
6.20075e-11
6.09957e-11
5.99497e-11
5.88964e-11
5.78635e-11
5.6878e-11
5.59647e-11
5.51466e-11
5.44438e-11
5.38729e-11
5.34466e-11
5.31772e-11
6.11687e-11
8.3051e-11
7.14481e-11
5.78479e-11
5.54671e-11
5.7617e-11
5.76614e-11
5.74271e-11
5.70817e-11
5.66327e-11
5.60792e-11
5.54258e-11
5.46832e-11
5.38667e-11
5.29955e-11
5.20908e-11
5.1175e-11
5.02712e-11
4.9402e-11
4.85885e-11
4.78495e-11
4.72019e-11
4.66601e-11
4.62355e-11
4.5937e-11
4.57732e-11
5.27345e-11
7.16133e-11
6.13636e-11
4.97474e-11
4.77086e-11
4.95157e-11
4.94951e-11
4.92163e-11
4.88304e-11
4.83518e-11
4.77868e-11
4.71456e-11
4.64418e-11
4.56921e-11
4.49144e-11
4.41275e-11
4.33498e-11
4.25991e-11
4.18925e-11
4.12451e-11
4.06698e-11
4.01782e-11
3.97795e-11
3.94811e-11
3.92885e-11
3.92074e-11
4.52316e-11
6.14205e-11
5.24844e-11
4.2625e-11
4.08689e-11
4.23561e-11
4.22652e-11
4.19414e-11
4.15223e-11
4.1027e-11
4.04674e-11
3.98565e-11
3.92089e-11
3.85403e-11
3.78662e-11
3.72015e-11
3.65602e-11
3.5955e-11
3.53975e-11
3.48976e-11
3.44636e-11
3.41023e-11
3.38195e-11
3.36191e-11
3.35043e-11
3.34787e-11
3.866e-11
5.24761e-11
4.45816e-11
3.62924e-11
3.47829e-11
3.59855e-11
3.58411e-11
3.54952e-11
3.50706e-11
3.45893e-11
3.40649e-11
3.35113e-11
3.2942e-11
3.23702e-11
3.18081e-11
3.12666e-11
3.07555e-11
3.02832e-11
2.98567e-11
2.94821e-11
2.91639e-11
2.89059e-11
2.8711e-11
2.85812e-11
2.85179e-11
2.85234e-11
3.29542e-11
4.47001e-11
3.7443e-11
3.05703e-11
2.92887e-11
3.02488e-11
3.00801e-11
2.97452e-11
2.93512e-11
2.89191e-11
2.84623e-11
2.79929e-11
2.75221e-11
2.706e-11
2.66153e-11
2.61954e-11
2.58065e-11
2.54534e-11
2.51402e-11
2.487e-11
2.46449e-11
2.44668e-11
2.43367e-11
2.42555e-11
2.42235e-11
2.42424e-11
2.80107e-11
3.79614e-11
3.09367e-11
2.53438e-11
2.42803e-11
2.50408e-11
2.48785e-11
2.45867e-11
2.42551e-11
2.39017e-11
2.35375e-11
2.31717e-11
2.28125e-11
2.24667e-11
2.21399e-11
2.18366e-11
2.15601e-11
2.1313e-11
2.10972e-11
2.0914e-11
2.07641e-11
2.0648e-11
2.05662e-11
2.05185e-11
2.05051e-11
2.0527e-11
2.3714e-11
3.21112e-11
2.50234e-11
2.05759e-11
1.97211e-11
2.03216e-11
2.01894e-11
1.99629e-11
1.97137e-11
1.94556e-11
1.91962e-11
1.89415e-11
1.86964e-11
1.84651e-11
1.82504e-11
1.80545e-11
1.78789e-11
1.77245e-11
1.75919e-11
1.74814e-11
1.73929e-11
1.73264e-11
1.72818e-11
1.72588e-11
1.72574e-11
1.72784e-11
1.99575e-11
2.70088e-11
1.97328e-11
1.62895e-11
1.56287e-11
1.61024e-11
1.60131e-11
1.58604e-11
1.5699e-11
1.55379e-11
1.53814e-11
1.52325e-11
1.50935e-11
1.4966e-11
1.4851e-11
1.4749e-11
1.46602e-11
1.45844e-11
1.45216e-11
1.44714e-11
1.44334e-11
1.44073e-11
1.43929e-11
1.43899e-11
1.43982e-11
1.44187e-11
1.66551e-11
2.25372e-11
1.51225e-11
1.25341e-11
1.20456e-11
1.24183e-11
1.23737e-11
1.22907e-11
1.22091e-11
1.21339e-11
1.20667e-11
1.20079e-11
1.1958e-11
1.19166e-11
1.18835e-11
1.1858e-11
1.18395e-11
1.18272e-11
1.18206e-11
1.1819e-11
1.18218e-11
1.18287e-11
1.18393e-11
1.18536e-11
1.18714e-11
1.18936e-11
1.37452e-11
1.86095e-11
1.12381e-11
9.35249e-12
9.00867e-12
9.29989e-12
9.29326e-12
9.2669e-12
9.24843e-12
9.23995e-12
9.24094e-12
9.25043e-12
9.26728e-12
9.29025e-12
9.31807e-12
9.34948e-12
9.3833e-12
9.41848e-12
9.45408e-12
9.48934e-12
9.5236e-12
9.5564e-12
9.58747e-12
9.61666e-12
9.644e-12
9.6703e-12
1.11882e-11
1.51669e-11
8.08773e-12
6.75806e-12
6.52846e-12
6.75322e-12
6.7734e-12
6.78654e-12
6.81104e-12
6.84706e-12
6.893e-12
6.94702e-12
7.00727e-12
7.07196e-12
7.13936e-12
7.20788e-12
7.27609e-12
7.34273e-12
7.40673e-12
7.46721e-12
7.52346e-12
7.57497e-12
7.62143e-12
7.66271e-12
7.69883e-12
7.73051e-12
8.96045e-12
1.21719e-11
5.63362e-12
4.72631e-12
4.58142e-12
4.75165e-12
4.78679e-12
4.82262e-12
4.87088e-12
4.93076e-12
5.00026e-12
5.07728e-12
5.15977e-12
5.24579e-12
5.33351e-12
5.42126e-12
5.50752e-12
5.59099e-12
5.67055e-12
5.74526e-12
5.81436e-12
5.8773e-12
5.93372e-12
5.98345e-12
6.02647e-12
6.06336e-12
7.04664e-12
9.59921e-12
3.79847e-12
3.19928e-12
3.1133e-12
3.23918e-12
3.27931e-12
3.32408e-12
3.38074e-12
3.44814e-12
3.52437e-12
3.60747e-12
3.69553e-12
3.78673e-12
3.87938e-12
3.97191e-12
4.06287e-12
4.15101e-12
4.23523e-12
4.31461e-12
4.38836e-12
4.45589e-12
4.51682e-12
4.57088e-12
4.618e-12
4.65861e-12
5.43283e-12
7.42698e-12
2.48068e-12
2.09741e-12
2.04978e-12
2.1403e-12
2.17851e-12
2.22275e-12
2.27737e-12
2.34131e-12
2.41296e-12
2.49072e-12
2.573e-12
2.65829e-12
2.74514e-12
2.8322e-12
2.9182e-12
3.00202e-12
3.08264e-12
3.1592e-12
3.23095e-12
3.29729e-12
3.35779e-12
3.41214e-12
3.46021e-12
3.50224e-12
4.1017e-12
5.63061e-12
1.57103e-12
1.33326e-12
1.30893e-12
1.37209e-12
1.40456e-12
1.44292e-12
1.48975e-12
1.54421e-12
1.60512e-12
1.67128e-12
1.74149e-12
1.81458e-12
1.88942e-12
1.96492e-12
2.04006e-12
2.11387e-12
2.1855e-12
2.25417e-12
2.3192e-12
2.38002e-12
2.43621e-12
2.48743e-12
2.53348e-12
2.57446e-12
3.03025e-12
4.17935e-12
9.66528e-13
8.23177e-13
8.11998e-13
8.54708e-13
8.80091e-13
9.10473e-13
9.47381e-13
9.90236e-13
1.03825e-12
1.0906e-12
1.14644e-12
1.20496e-12
1.26531e-12
1.32669e-12
1.3883e-12
1.44939e-12
1.50928e-12
1.5673e-12
1.62288e-12
1.67552e-12
1.72481e-12
1.77042e-12
1.81213e-12
1.84994e-12
2.18989e-12
3.03586e-12
5.79063e-13
4.94838e-13
4.90464e-13
5.18466e-13
5.37027e-13
5.59459e-13
5.86672e-13
6.18317e-13
6.5391e-13
6.92933e-13
7.3485e-13
7.79109e-13
8.25145e-13
8.72389e-13
9.20272e-13
9.68239e-13
1.01576e-12
1.06232e-12
1.10747e-12
1.15078e-12
1.19189e-12
1.23051e-12
1.26642e-12
1.29956e-12
1.54811e-12
2.15794e-12
3.38986e-13
2.90574e-13
2.89356e-13
3.07174e-13
3.20011e-13
3.35644e-13
3.54625e-13
3.76773e-13
4.01817e-13
4.29461e-13
4.59388e-13
4.9126e-13
5.24718e-13
5.5939e-13
5.94891e-13
6.30836e-13
6.66843e-13
7.02543e-13
7.37581e-13
7.71632e-13
8.04407e-13
8.35656e-13
8.65176e-13
8.9288e-13
1.07094e-12
1.50138e-12
1.94792e-13
1.67424e-13
1.6745e-13
1.78478e-13
1.8694e-13
1.97311e-13
2.09936e-13
2.24733e-13
2.41572e-13
2.603e-13
2.80747e-13
3.02723e-13
3.26017e-13
3.50402e-13
3.75638e-13
4.01471e-13
4.27646e-13
4.53907e-13
4.80003e-13
5.05694e-13
5.30763e-13
5.55013e-13
5.78276e-13
6.0046e-13
7.25443e-13
1.02302e-12
1.10546e-13
9.5226e-14
9.55998e-14
1.02261e-13
1.07613e-13
1.14207e-13
1.22263e-13
1.31756e-13
1.42634e-13
1.54831e-13
1.68265e-13
1.82841e-13
1.98447e-13
2.14954e-13
2.32222e-13
2.50098e-13
2.68422e-13
2.87026e-13
3.05744e-13
3.24411e-13
3.42872e-13
3.60983e-13
3.78615e-13
3.95688e-13
4.81668e-13
6.83292e-13
6.2459e-14
5.38907e-14
5.42553e-14
5.81993e-14
6.14668e-14
6.55103e-14
7.04687e-14
7.6347e-14
8.31322e-14
9.08029e-14
9.93283e-14
1.08667e-13
1.18767e-13
1.29564e-13
1.40981e-13
1.52933e-13
1.65327e-13
1.78062e-13
1.91034e-13
2.04136e-13
2.17266e-13
2.30324e-13
2.43218e-13
2.55887e-13
3.13891e-13
4.47911e-13
3.54938e-14
3.06548e-14
3.09089e-14
3.32101e-14
3.51472e-14
3.75515e-14
4.05121e-14
4.40429e-14
4.81481e-14
5.28275e-14
5.80753e-14
6.38786e-14
7.02177e-14
7.70648e-14
8.43839e-14
9.21318e-14
1.00259e-13
1.08708e-13
1.1742e-13
1.2633e-13
1.35375e-13
1.4449e-13
1.53616e-13
1.62707e-13
2.01117e-13
2.88626e-13
2.05351e-14
1.77428e-14
1.78874e-14
1.92199e-14
2.03416e-14
2.17356e-14
2.34593e-14
2.55269e-14
2.79479e-14
3.07294e-14
3.38757e-14
3.73875e-14
4.12608e-14
4.5487e-14
5.00524e-14
5.49381e-14
6.01205e-14
6.55713e-14
7.12584e-14
7.71466e-14
8.31991e-14
8.93777e-14
9.56451e-14
1.01972e-13
1.26972e-13
1.83195e-13
1.22559e-14
1.05909e-14
1.06568e-14
1.14285e-14
1.20668e-14
1.28594e-14
1.38431e-14
1.50294e-14
1.64277e-14
1.80462e-14
1.98919e-14
2.19699e-14
2.42831e-14
2.68317e-14
2.96127e-14
3.26201e-14
3.58449e-14
3.92748e-14
4.28949e-14
4.66875e-14
5.06333e-14
5.47114e-14
5.89005e-14
6.31836e-14
7.92022e-14
1.14817e-13
7.63893e-15
6.60429e-15
6.62208e-15
7.0728e-15
7.43179e-15
7.87603e-15
8.42902e-15
9.09925e-15
9.89397e-15
1.08201e-14
1.18841e-14
1.30918e-14
1.44477e-14
1.59552e-14
1.7616e-14
1.94298e-14
2.13949e-14
2.35074e-14
2.57615e-14
2.81499e-14
3.06636e-14
3.32925e-14
3.60254e-14
3.88537e-14
4.89793e-14
7.1276e-14
5.01644e-15
4.34406e-15
4.33618e-15
4.60376e-15
4.80418e-15
5.05055e-15
5.35807e-15
5.73247e-15
6.17886e-15
6.70229e-15
7.30775e-15
8.00007e-15
8.7835e-15
9.66178e-15
1.06379e-14
1.1714e-14
1.2891e-14
1.4169e-14
1.55469e-14
1.70224e-14
1.85922e-14
2.02524e-14
2.19978e-14
2.38249e-14
3.01541e-14
4.39875e-14
3.48252e-15
3.0265e-15
3.00699e-15
3.16937e-15
3.28077e-15
3.41623e-15
3.58583e-15
3.79329e-15
4.04194e-15
4.33525e-15
4.67669e-15
5.06972e-15
5.51775e-15
6.02386e-15
6.59089e-15
7.22126e-15
7.91693e-15
8.67926e-15
9.50901e-15
1.04063e-14
1.13707e-14
1.24011e-14
1.34959e-14
1.4654e-14
1.8577e-14
2.71079e-14
2.54934e-15
2.22886e-15
2.2057e-15
2.30674e-15
2.36838e-15
2.44222e-15
2.53504e-15
2.64925e-15
2.78694e-15
2.95036e-15
3.14182e-15
3.36363e-15
3.61821e-15
3.90781e-15
4.23467e-15
4.60083e-15
5.00813e-15
5.4582e-15
5.95232e-15
6.49141e-15
7.07618e-15
7.70681e-15
8.38334e-15
9.10597e-15
1.15243e-14
1.67705e-14
1.95457e-15
1.72352e-15
1.70088e-15
1.76539e-15
1.79928e-15
1.83909e-15
1.88946e-15
1.95196e-15
2.02788e-15
2.11864e-15
2.22568e-15
2.35056e-15
2.49479e-15
2.65998e-15
2.84766e-15
3.05937e-15
3.29654e-15
3.56056e-15
3.8526e-15
4.17376e-15
4.52495e-15
4.90688e-15
5.32012e-15
5.76536e-15
7.25274e-15
1.04805e-14
1.55647e-15
1.38742e-15
1.36731e-15
1.40946e-15
1.42793e-15
1.44909e-15
1.4762e-15
1.51022e-15
1.55199e-15
1.60236e-15
1.66224e-15
1.73259e-15
1.81439e-15
1.90867e-15
2.01644e-15
2.13876e-15
2.27664e-15
2.4311e-15
2.60306e-15
2.79346e-15
3.0031e-15
3.23276e-15
3.48306e-15
3.75486e-15
4.6705e-15
6.66361e-15
1.2777e-15
1.15343e-15
1.13662e-15
1.16472e-15
1.17472e-15
1.18581e-15
1.2003e-15
1.2188e-15
1.24183e-15
1.26991e-15
1.30358e-15
1.34343e-15
1.39008e-15
1.44415e-15
1.50631e-15
1.57722e-15
1.65756e-15
1.74802e-15
1.84928e-15
1.962e-15
2.08683e-15
2.22439e-15
2.37523e-15
2.5401e-15
3.10601e-15
4.34466e-15
1.07544e-15
9.84422e-16
9.71019e-16
9.90051e-16
9.95469e-16
1.00126e-15
1.00903e-15
1.0192e-15
1.03205e-15
1.04791e-15
1.0671e-15
1.08996e-15
1.11688e-15
1.14822e-15
1.18441e-15
1.22585e-15
1.27298e-15
1.32624e-15
1.38609e-15
1.45298e-15
1.52737e-15
1.60972e-15
1.70046e-15
1.80013e-15
2.15223e-15
2.92868e-15
9.25362e-16
8.59349e-16
8.49099e-16
8.62135e-16
8.65142e-16
8.6823e-16
8.72528e-16
8.78289e-16
8.85686e-16
8.94899e-16
9.06121e-16
9.1955e-16
9.35403e-16
9.53909e-16
9.7531e-16
9.99856e-16
1.02783e-15
1.0595e-15
1.09515e-15
1.13509e-15
1.17963e-15
1.22906e-15
1.28372e-15
1.34397e-15
1.56495e-15
2.05665e-15
8.12976e-16
7.65795e-16
7.58255e-16
7.67247e-16
7.6902e-16
7.70783e-16
7.73327e-16
7.76798e-16
7.81285e-16
7.86899e-16
7.93735e-16
8.01915e-16
8.11549e-16
8.2278e-16
8.35742e-16
8.50589e-16
8.67481e-16
8.86595e-16
9.08098e-16
9.32193e-16