/*--------------------------------*- C++ -*----------------------------------*\
  =========                 |
  \\      /  F ield         | OpenFOAM: The Open Source CFD Toolbox
   \\    /   O peration     | Website:  https://openfoam.org
    \\  /    A nd           | Version:  7
     \\/     M anipulation  |
\*---------------------------------------------------------------------------*/
FoamFile
{
    version     2.0;
    format      ascii;
    class       volVectorField;
    location    "0.01";
    object      U;
}
// * * * * * * * * * * * * * * * * * * * * * * * * * * * * * * * * * * * * * //

dimensions      [0 1 -1 0 0 0 0];

internalField   nonuniform List<vector> 
10790
(
(0.002496 0.471808 0.030527)
(-0.000239661 0.462907 0.0313881)
(-0.00139374 0.462849 0.0324395)
(0.0005253 0.461524 0.031052)
(0.000506291 0.462692 0.0309423)
(2.06506e-05 0.462218 0.031364)
(-0.000184565 0.461373 0.0313735)
(-0.000125463 0.461091 0.0314527)
(-1.38826e-05 0.458611 0.031503)
(1.8737e-05 0.461419 0.0315503)
(2.69709e-05 0.461598 0.0315292)
(2.08348e-05 0.461243 0.0315114)
(-1.59334e-05 0.459197 0.0314786)
(-6.38614e-05 0.46105 0.0314993)
(-7.94983e-05 0.460967 0.0315015)
(-7.34488e-05 0.459603 0.0314976)
(-2.82174e-05 0.460941 0.0315298)
(2.76024e-05 0.460856 0.0315211)
(1.52753e-05 0.4601 0.0314702)
(-5.75673e-05 0.460363 0.0314181)
(-7.36153e-05 0.460455 0.0313642)
(-4.55796e-05 0.461297 0.0313375)
(-0.000208949 0.461222 0.0314572)
(-0.000545471 0.46182 0.0318565)
(-0.000446579 0.462266 0.032234)
(-0.00131662 0.472702 0.0317844)
(0.00213261 0.482504 0.0243551)
(0.00207775 0.484535 0.024362)
(-0.000966664 0.483858 0.0265619)
(-0.000849483 0.484459 0.0261144)
(0.000383663 0.483787 0.0258467)
(0.000235328 0.482416 0.0256526)
(-9.76186e-05 0.482464 0.0256022)
(2.86397e-05 0.482454 0.025726)
(6.60499e-05 0.481962 0.0257959)
(8.35476e-06 0.482913 0.0258015)
(-6.02664e-06 0.482496 0.0257848)
(1.02975e-06 0.481851 0.0257892)
(-2.38199e-05 0.481698 0.0257782)
(-6.61303e-05 0.482183 0.0257695)
(-7.98838e-05 0.482085 0.0257685)
(-6.11805e-05 0.482054 0.0257822)
(-2.76424e-05 0.482259 0.0258168)
(-2.5406e-05 0.481902 0.0258382)
(-8.32664e-05 0.481703 0.0258042)
(-0.000152962 0.482427 0.0257587)
(-0.000102181 0.482343 0.0257039)
(0.000121569 0.482357 0.0255467)
(0.000311701 0.48349 0.0254688)
(0.000234264 0.483603 0.025886)
(-0.000661278 0.484117 0.0267041)
(-0.000730558 0.48376 0.0265083)
(0.000894804 0.488177 0.0281184)
(0.00156919 0.488852 0.0264044)
(0.000399404 0.488423 0.0263391)
(-0.00020271 0.488784 0.0274498)
(-4.18553e-05 0.489531 0.0277303)
(-0.000192145 0.487763 0.0271592)
(-4.64483e-05 0.487937 0.0271701)
(8.35334e-05 0.488086 0.0272458)
(5.80255e-05 0.488689 0.0272259)
(1.52124e-05 0.488608 0.0272079)
(1.25355e-05 0.487932 0.0272194)
(-6.69681e-07 0.486605 0.0272315)
(-4.7653e-05 0.487571 0.0272125)
(-8.86692e-05 0.487724 0.0271893)
(-7.54747e-05 0.487391 0.0271947)
(-1.57084e-05 0.488003 0.0272047)
(3.06717e-05 0.487753 0.0272143)
(2.2034e-06 0.487598 0.0272153)
(-7.59673e-05 0.487914 0.0271932)
(-0.000164104 0.487786 0.0272274)
(-0.000291909 0.487726 0.0273139)
(-0.000310488 0.487479 0.0271601)
(5.70259e-05 0.488276 0.0267576)
(0.000598003 0.488532 0.0263554)
(0.00019858 0.488799 0.026608)
(-0.000220438 0.489404 0.0272318)
(0.000328957 0.488253 0.0278409)
(0.000199222 0.488114 0.0271255)
(8.82366e-06 0.487947 0.0264893)
(0.000517593 0.487629 0.0268269)
(0.00019084 0.488393 0.026765)
(-0.000264687 0.487306 0.026829)
(-2.9426e-05 0.487293 0.0269368)
(5.67351e-05 0.488526 0.0269178)
(3.10207e-05 0.488333 0.0268596)
(3.12471e-05 0.487392 0.0268563)
(3.10711e-05 0.487207 0.0268828)
(-7.14641e-06 0.485827 0.0268795)
(-6.94893e-05 0.486872 0.0268572)
(-0.000105936 0.486637 0.0268476)
(-8.20821e-05 0.486066 0.0268704)
(-1.92764e-05 0.486917 0.0268986)
(4.00309e-06 0.485906 0.0269037)
(-5.10187e-05 0.486545 0.0268642)
(-7.99296e-05 0.488402 0.0268113)
(-3.87911e-05 0.487106 0.0267833)
(-0.000176951 0.486966 0.0268681)
(-0.00046081 0.487232 0.0270519)
(-0.000491221 0.488731 0.0271671)
(4.11234e-05 0.487729 0.0267494)
(0.000159824 0.488033 0.0262927)
(-8.27757e-05 0.488351 0.0264543)
(0.000240189 0.489165 0.0265523)
(0.000264324 0.487499 0.0259567)
(0.000133821 0.487403 0.0263433)
(7.01028e-05 0.488292 0.026477)
(-8.90336e-05 0.48892 0.0258451)
(-1.81411e-05 0.487977 0.0260921)
(3.01057e-05 0.486316 0.0262056)
(9.18957e-06 0.488416 0.0261454)
(2.63101e-05 0.488088 0.0261178)
(5.46692e-05 0.487332 0.0261462)
(3.30825e-05 0.486858 0.0261541)
(-3.00465e-05 0.486672 0.0261279)
(-8.45262e-05 0.487068 0.0260936)
(-8.40151e-05 0.486388 0.0260835)
(-2.94917e-05 0.486959 0.0261083)
(2.66865e-05 0.487389 0.0261499)
(3.32904e-06 0.486997 0.0261684)
(-0.000104879 0.487234 0.0262003)
(-0.000171136 0.487845 0.0262431)
(-8.9504e-05 0.485861 0.0262163)
(-1.91716e-05 0.486621 0.0261211)
(-4.44315e-05 0.485439 0.0262149)
(-0.000238578 0.488624 0.0263785)
(-0.000239587 0.488807 0.0264263)
(-0.000118654 0.488097 0.0260725)
(-8.46938e-05 0.48793 0.0261046)
(-0.00024282 0.488475 0.0263031)
(8.73556e-05 0.489238 0.0263016)
(0.000533575 0.488113 0.0262136)
(-5.13434e-05 0.4886 0.0260227)
(-0.000202428 0.488532 0.026082)
(9.0843e-05 0.486114 0.0261873)
(2.59791e-05 0.486962 0.0261301)
(-1.35681e-06 0.487032 0.0261052)
(5.12155e-05 0.486957 0.0261417)
(6.54503e-05 0.486605 0.0261694)
(9.91526e-06 0.484268 0.0261666)
(-7.13107e-05 0.486447 0.0261313)
(-0.000117243 0.486598 0.0261108)
(-9.05794e-05 0.485832 0.0261037)
(-1.29753e-05 0.486337 0.0261025)
(4.47475e-05 0.486901 0.0260694)
(3.9366e-05 0.48689 0.0259752)
(6.69691e-06 0.487689 0.0258955)
(-6.04092e-05 0.486243 0.0258993)
(-0.0001447 0.48565 0.0258923)
(-0.000179156 0.487649 0.0257864)
(-0.000227586 0.487611 0.0257934)
(-0.000294163 0.4866 0.025704)
(-0.000248052 0.487967 0.025842)
(-0.000160454 0.487372 0.0257782)
(-7.1636e-05 0.486701 0.0257447)
(0.000208018 0.48558 0.0248682)
(0.000271518 0.488325 0.0255456)
(-0.000126577 0.487925 0.0252481)
(-0.000183795 0.488735 0.0247619)
(8.35343e-05 0.486819 0.0251751)
(6.24851e-05 0.487217 0.0251311)
(-1.86887e-05 0.487389 0.025056)
(2.78847e-05 0.487254 0.0250915)
(7.86655e-05 0.486941 0.0251272)
(5.61001e-05 0.486245 0.0251098)
(-1.05663e-05 0.485617 0.0250747)
(-7.60959e-05 0.486387 0.0250672)
(-0.000108434 0.486064 0.0250986)
(-9.17401e-05 0.485921 0.0251599)
(-6.23924e-05 0.486491 0.0252263)
(-9.99491e-05 0.485559 0.0252699)
(-0.000190749 0.486844 0.0252534)
(-0.000195362 0.487417 0.0252122)
(-0.000175262 0.487101 0.025224)
(-0.000194109 0.487288 0.0252319)
(-9.31359e-05 0.485978 0.0251564)
(-0.000141009 0.487754 0.0252897)
(-0.000219741 0.486428 0.0253129)
(-0.000171357 0.487249 0.0253911)
(-0.000200511 0.487504 0.0253645)
(-0.000107424 0.486079 0.0252901)
(0.00046447 0.488173 0.0247262)
(0.000461891 0.48759 0.0245531)
(-0.000282215 0.489203 0.0243873)
(-0.000125506 0.488027 0.024714)
(0.0001707 0.488574 0.0247495)
(-1.15498e-05 0.488341 0.0246162)
(-8.93773e-06 0.487763 0.0246481)
(6.35481e-05 0.487178 0.0247215)
(6.37765e-05 0.486477 0.0247199)
(1.1708e-05 0.484996 0.0246659)
(-3.41404e-05 0.486193 0.0246103)
(-4.83199e-05 0.486558 0.0245836)
(-2.5881e-05 0.486351 0.0245815)
(3.62606e-05 0.487307 0.0245943)
(9.6476e-05 0.487522 0.024621)
(7.15357e-05 0.487258 0.0246526)
(-1.90583e-05 0.486366 0.0247153)
(-2.89508e-05 0.486685 0.0247709)
(-4.37446e-05 0.486965 0.0248046)
(-0.000216152 0.484857 0.0249399)
(-0.000110856 0.486493 0.0248875)
(-5.61953e-05 0.487414 0.0248937)
(-0.000188926 0.486101 0.0248785)
(-0.000193386 0.486357 0.0248532)
(-0.000266255 0.486579 0.0248322)
(-0.000147607 0.486421 0.0248043)
(6.47562e-05 0.486818 0.0252316)
(-9.94853e-05 0.48914 0.0246416)
(-3.96237e-05 0.486827 0.0243977)
(0.000194197 0.488136 0.0250785)
(2.98062e-05 0.488845 0.0248963)
(-2.38336e-05 0.488279 0.024857)
(6.30616e-05 0.487038 0.0249296)
(7.44232e-05 0.485716 0.0249279)
(1.05522e-05 0.486071 0.0248647)
(-5.20029e-05 0.484733 0.0248399)
(-8.57859e-05 0.485044 0.0248602)
(-0.000100659 0.486072 0.0248749)
(-9.08053e-05 0.485973 0.0248588)
(-4.4316e-05 0.486381 0.0247947)
(1.57082e-06 0.486954 0.0246716)
(-1.11569e-05 0.486792 0.0245201)
(-7.83105e-05 0.485327 0.0244473)
(-9.75416e-05 0.486302 0.0244594)
(2.29445e-05 0.485269 0.0243514)
(-9.3978e-05 0.486426 0.0244265)
(-0.000145986 0.485748 0.0244757)
(-0.000147734 0.486409 0.0244017)
(-0.000278105 0.487783 0.02436)
(-0.00024753 0.486636 0.0243028)
(-0.000267472 0.486884 0.0243286)
(-0.000140994 0.486436 0.0243688)
(-5.78111e-05 0.488281 0.0237161)
(-0.000194476 0.48914 0.0236002)
(0.000119106 0.487972 0.0239633)
(0.000213422 0.488259 0.0238738)
(-5.7703e-05 0.48762 0.0237134)
(3.91226e-05 0.486989 0.0238339)
(9.14407e-05 0.486952 0.0238927)
(3.36895e-05 0.48737 0.0238198)
(-1.40733e-05 0.486445 0.0237481)
(-1.48958e-05 0.487072 0.0237637)
(-1.88093e-05 0.487229 0.0238433)
(-5.53438e-05 0.486624 0.0239323)
(-9.45239e-05 0.485065 0.0240081)
(-0.000110147 0.485734 0.0240357)
(-0.000115168 0.484998 0.0240418)
(-9.01373e-05 0.486522 0.0239767)
(-2.83335e-05 0.487474 0.023898)
(-8.7057e-05 0.487656 0.0239558)
(-9.86036e-05 0.4876 0.0239662)
(-0.000162072 0.488629 0.0238597)
(-0.000187347 0.487323 0.02389)
(-0.000192631 0.486888 0.0238604)
(-0.000285457 0.487781 0.0239085)
(-0.000227611 0.48589 0.0239157)
(-0.000208918 0.485717 0.0239624)
(-0.000108435 0.486111 0.0239891)
(-6.96287e-05 0.489054 0.0231458)
(0.000180843 0.487162 0.0232404)
(0.000290145 0.488936 0.0236407)
(-1.42432e-05 0.488825 0.0232828)
(4.45653e-06 0.488241 0.0233864)
(8.43167e-05 0.487842 0.0234766)
(5.55984e-06 0.488462 0.0234038)
(-7.60166e-05 0.488229 0.0232925)
(-4.1698e-05 0.486568 0.0232375)
(5.63669e-05 0.488263 0.0232411)
(0.00010122 0.488442 0.0232713)
(8.74781e-05 0.488293 0.0232989)
(4.98092e-05 0.488023 0.0233267)
(-4.19233e-06 0.487746 0.0233733)
(-0.000101016 0.486222 0.0234334)
(-0.000192914 0.487795 0.0234633)
(-0.000115467 0.488155 0.0234073)
(-3.24714e-05 0.487581 0.0233474)
(-7.62667e-05 0.487153 0.0234823)
(-0.000176275 0.487972 0.0234582)
(-0.000151301 0.486598 0.0235016)
(-0.000129756 0.486449 0.0235085)
(-0.000205343 0.485596 0.0235592)
(-0.000190372 0.486495 0.0235335)
(-0.000181033 0.48711 0.0236123)
(-9.32744e-05 0.486312 0.0236247)
(2.72473e-05 0.488475 0.0231765)
(0.000321075 0.489897 0.0236609)
(0.000189536 0.489007 0.0233197)
(-5.77083e-05 0.487795 0.0232125)
(0.000112982 0.487116 0.0233572)
(4.64114e-05 0.487998 0.0233313)
(-9.19029e-05 0.487914 0.0232308)
(-0.000128987 0.487001 0.0231912)
(-6.43566e-05 0.486287 0.0231349)
(1.87749e-05 0.487445 0.0232484)
(4.09115e-05 0.487442 0.0232177)
(3.97705e-06 0.486542 0.0230447)
(-1.98487e-05 0.487391 0.0230495)
(-6.46608e-06 0.487561 0.0230041)
(-2.33718e-05 0.487537 0.0230031)
(-0.000112514 0.48592 0.023091)
(-0.000144008 0.486653 0.0231174)
(-8.99702e-06 0.485911 0.0230609)
(2.19311e-05 0.48711 0.0231638)
(-0.000122079 0.48567 0.0232557)
(-0.000124598 0.486959 0.0233216)
(-0.000100644 0.487671 0.0232861)
(-0.000166307 0.487197 0.0233034)
(-0.000186358 0.4877 0.0233019)
(-0.000189042 0.487566 0.0232871)
(-9.50331e-05 0.485947 0.0232639)
(0.000303473 0.489476 0.0231953)
(0.000257911 0.48929 0.0234268)
(-5.24104e-05 0.487976 0.0229421)
(9.31549e-05 0.487901 0.0231325)
(0.000104579 0.48821 0.0231072)
(-5.1275e-05 0.488127 0.022969)
(-0.000102818 0.487622 0.0229427)
(-3.75881e-05 0.48744 0.0230306)
(4.05616e-05 0.488336 0.0231574)
(5.62784e-05 0.488489 0.0232638)
(-4.60431e-06 0.488116 0.0232954)
(-0.000105596 0.48638 0.0232488)
(-0.000133934 0.487687 0.0231519)
(-6.81605e-05 0.486678 0.0230778)
(9.45985e-06 0.487858 0.0230111)
(1.54401e-05 0.487258 0.0230409)
(-9.58171e-05 0.48774 0.0231515)
(-4.06332e-05 0.486664 0.023106)
(2.71966e-05 0.487989 0.0230289)
(-0.000122447 0.486911 0.0230118)
(-0.000162438 0.487143 0.0230074)
(-0.000144149 0.487483 0.0229305)
(-0.000184128 0.486627 0.022897)
(-0.000196774 0.486271 0.0228892)
(-0.000192505 0.486575 0.0228685)
(-9.61978e-05 0.486124 0.0228467)
(0.000281055 0.487699 0.0230935)
(0.000128112 0.487418 0.0226801)
(-4.71632e-05 0.487939 0.0227246)
(0.000126207 0.487763 0.0228104)
(-6.09959e-05 0.486586 0.0226597)
(-0.000143341 0.48572 0.0225856)
(-6.0071e-05 0.486824 0.0226125)
(6.85242e-05 0.4874 0.0226764)
(0.000165597 0.487782 0.0227216)
(0.000157929 0.487873 0.0227634)
(2.81494e-05 0.487434 0.0228014)
(-0.00012281 0.486701 0.0228252)
(-0.000174543 0.48749 0.0228176)
(-0.000121495 0.487366 0.0227724)
(-2.56036e-05 0.485985 0.0227087)
(3.55317e-05 0.484352 0.0226693)
(-9.23862e-05 0.487368 0.0226819)
(-0.000118757 0.487356 0.0226555)
(-4.78211e-05 0.485394 0.0225426)
(-0.000149211 0.485836 0.0224802)
(-0.000192008 0.486159 0.0224802)
(-0.000176331 0.486736 0.0224385)
(-0.000188714 0.486653 0.0224258)
(-0.000192428 0.485598 0.0224314)
(-0.000195492 0.486629 0.0224262)
(-9.96436e-05 0.486851 0.0224104)
(-4.62159e-05 0.487124 0.0221494)
(-1.08202e-05 0.4895 0.0218485)
(0.000119452 0.489224 0.0221559)
(7.04157e-06 0.487713 0.0220137)
(-0.00016207 0.488123 0.0219016)
(-0.000131233 0.486886 0.0218674)
(-3.27991e-05 0.487731 0.0220618)
(6.31851e-05 0.487727 0.0220659)
(0.000132895 0.487598 0.0219377)
(0.00013695 0.487831 0.0218331)
(4.8435e-05 0.487816 0.0218078)
(-8.52803e-05 0.485732 0.0218326)
(-0.000172361 0.487451 0.0219246)
(-0.000165025 0.48786 0.0219704)
(-7.28688e-05 0.487328 0.0219252)
(1.02616e-05 0.486712 0.0218712)
(-0.000107284 0.487615 0.0219045)
(-0.000180935 0.488052 0.0219604)
(-0.000125031 0.486862 0.0218954)
(-0.000157823 0.486234 0.0218754)
(-0.000178026 0.487021 0.0219077)
(-0.000171975 0.486612 0.0219217)
(-0.000175691 0.48596 0.0219286)
(-0.000185308 0.486235 0.0219494)
(-0.000198775 0.485761 0.021968)
(-0.000103989 0.485821 0.0219811)
(-0.000144955 0.488987 0.0210446)
(2.96999e-06 0.489236 0.0211656)
(0.00012241 0.487689 0.0211582)
(-7.97302e-05 0.488688 0.0209817)
(-4.42293e-05 0.488671 0.0210798)
(2.49681e-05 0.488379 0.0212559)
(1.7593e-05 0.487913 0.0213636)
(-6.13563e-06 0.487308 0.0213703)
(-1.372e-05 0.487222 0.0212849)
(4.48607e-06 0.487949 0.0211514)
(2.1199e-05 0.488288 0.0210589)
(-8.40924e-06 0.487938 0.02108)
(-8.21662e-05 0.487445 0.0211996)
(-0.000131881 0.488131 0.0213014)
(-6.84236e-05 0.487866 0.0213269)
(2.80021e-05 0.486872 0.0213379)
(-6.00605e-05 0.487126 0.0213482)
(-0.00014895 0.487199 0.0213959)
(-0.000114329 0.485747 0.0213707)
(-0.000136596 0.484215 0.0212508)
(-0.000166289 0.485552 0.0214438)
(-0.000162621 0.485504 0.0214892)
(-0.000166139 0.485718 0.0215139)
(-0.000181946 0.486833 0.0215395)
(-0.000199846 0.487295 0.0215616)
(-0.000104118 0.486966 0.0215859)
(5.76461e-05 0.488217 0.0205886)
(8.92298e-05 0.487439 0.0208273)
(-4.72631e-05 0.488607 0.0206271)
(-3.97572e-05 0.488982 0.0206686)
(0.000140298 0.488976 0.0208443)
(0.000169791 0.488734 0.0209384)
(7.29855e-05 0.488113 0.0209682)
(-4.00015e-05 0.486878 0.0209561)
(-0.000102415 0.4878 0.0208982)
(-9.15095e-05 0.487069 0.0207989)
(-2.19089e-05 0.486033 0.0207155)
(5.50769e-05 0.48713 0.0207218)
(5.22399e-05 0.486395 0.0208059)
(-2.84451e-05 0.48618 0.0209024)
(-3.18383e-05 0.485179 0.0208992)
(3.9069e-05 0.485955 0.0208915)
(-1.83039e-05 0.486691 0.0209328)
(-0.000104077 0.486695 0.021017)
(-9.2729e-05 0.487361 0.0210376)
(-0.00011914 0.487883 0.0210505)
(-0.000157856 0.488011 0.0210871)
(-0.000155304 0.488091 0.0211181)
(-0.00015662 0.488277 0.021146)
(-0.000169038 0.488496 0.0211771)
(-0.000183644 0.488673 0.0212071)
(-9.45505e-05 0.487663 0.0212451)
(0.000143536 0.488404 0.0209556)
(5.32634e-05 0.490109 0.0209745)
(-0.000103947 0.490453 0.0209041)
(9.32047e-05 0.490417 0.0210811)
(0.000205891 0.490309 0.0211322)
(0.00014502 0.489995 0.0210434)
(3.6306e-05 0.489182 0.0209403)
(-4.80654e-05 0.489048 0.0209015)
(-9.76267e-05 0.489776 0.0209161)
(-0.000112386 0.489699 0.0209401)
(-6.26809e-05 0.489034 0.0209131)
(5.11874e-05 0.487753 0.0208523)
(0.000110005 0.487417 0.0208268)
(3.42314e-05 0.48701 0.0208573)
(-2.84479e-05 0.487622 0.020867)
(-9.55306e-07 0.488556 0.0208114)
(-3.53714e-05 0.488874 0.020756)
(-0.000105322 0.488838 0.0207665)
(-0.000110472 0.489217 0.0207639)
(-0.000112197 0.489343 0.0207552)
(-0.000125958 0.489049 0.0207896)
(-0.000129726 0.48905 0.0208196)
(-0.000133206 0.489025 0.0208466)
(-0.000143893 0.488968 0.0208715)
(-0.000158141 0.488873 0.0208922)
(-8.25576e-05 0.487862 0.0209017)
(3.77474e-05 0.490307 0.020964)
(6.16959e-06 0.489454 0.0208171)
(6.92995e-05 0.489328 0.0210073)
(0.000199124 0.48921 0.021138)
(0.000115202 0.489021 0.0210274)
(-9.40937e-06 0.488702 0.0208465)
(-6.30773e-05 0.487772 0.0207293)
(-5.95932e-05 0.488305 0.0206916)
(-5.83067e-05 0.488879 0.0207409)
(-8.89947e-05 0.489046 0.020818)
(-9.74519e-05 0.488951 0.0208484)
(-1.87809e-05 0.488549 0.0207947)
(5.91289e-05 0.488454 0.0207185)
(6.0767e-06 0.487597 0.0206701)
(-6.80821e-05 0.485987 0.0206767)
(-5.79798e-05 0.488497 0.0205838)
(-6.77279e-05 0.488897 0.0205216)
(-0.000106987 0.48901 0.0205145)
(-0.000112041 0.488838 0.0205067)
(-0.000102918 0.48871 0.0205098)
(-0.000100789 0.488392 0.0205289)
(-0.000101445 0.488399 0.0205439)
(-0.000107591 0.488383 0.0205561)
(-0.000123478 0.488188 0.0205651)
(-0.000144349 0.488073 0.0205658)
(-7.71934e-05 0.487108 0.020559)
(-7.75539e-06 0.489167 0.0203824)
(9.86466e-05 0.488441 0.0204143)
(0.000242143 0.48822 0.0205853)
(0.000161722 0.487883 0.0205225)
(-3.37857e-05 0.48763 0.0203575)
(-0.000134327 0.487406 0.0202513)
(-0.0001123 0.486125 0.0202323)
(-3.38282e-05 0.48763 0.0202531)
(9.9075e-06 0.488189 0.0203109)
(-2.83201e-05 0.488314 0.0204)
(-9.93076e-05 0.488152 0.0204609)
(-9.11661e-05 0.487771 0.0204448)
(-2.64949e-05 0.487956 0.0203733)
(-4.81004e-05 0.48754 0.0203171)
(-0.000105161 0.487068 0.0203129)
(-9.74107e-05 0.48628 0.0202939)
(-8.9083e-05 0.487233 0.0202487)
(-9.88059e-05 0.487782 0.0202391)
(-9.80098e-05 0.487598 0.0202377)
(-8.99227e-05 0.487779 0.0202404)
(-8.67155e-05 0.487823 0.0202437)
(-8.99737e-05 0.487736 0.0202456)
(-0.000101827 0.487404 0.0202433)
(-0.000122382 0.486581 0.0202419)
(-0.000150817 0.487458 0.0202082)
(-8.28438e-05 0.486747 0.0201983)
(9.79944e-05 0.488449 0.0198849)
(0.00023292 0.488514 0.0200523)
(0.000190253 0.488476 0.0199574)
(3.4992e-06 0.488839 0.0197405)
(-0.000125562 0.488717 0.0196295)
(-0.000133202 0.488305 0.0196617)
(-5.64391e-05 0.487508 0.0197625)
(3.71315e-05 0.487395 0.0198348)
(7.98575e-05 0.488073 0.0198712)
(3.99964e-05 0.488449 0.019911)
(-6.66023e-05 0.488478 0.0199584)
(-0.000118123 0.488254 0.0199745)
(-7.68225e-05 0.488011 0.0199317)
(-6.86985e-05 0.487755 0.0199104)
(-0.000108275 0.487549 0.0199292)
(-0.000106845 0.487253 0.0199374)
(-8.8654e-05 0.486245 0.0199245)
(-8.83044e-05 0.487153 0.0199257)
(-8.85027e-05 0.487193 0.0199345)
(-8.66721e-05 0.487408 0.0199259)
(-9.02464e-05 0.48752 0.0199125)
(-0.00010072 0.487352 0.0198931)
(-0.000117965 0.487344 0.0198717)
(-0.000140348 0.487943 0.019848)
(-0.00016864 0.488435 0.0198206)
(-9.22706e-05 0.488414 0.0198024)
(0.000185498 0.487583 0.0196969)
(0.000213583 0.488905 0.0196707)
(-3.23091e-05 0.489267 0.0194117)
(-0.000132535 0.489126 0.0192291)
(-9.24709e-05 0.488778 0.0192103)
(3.84873e-06 0.488126 0.0192978)
(5.79557e-05 0.485934 0.0192808)
(7.09868e-05 0.485913 0.019442)
(7.47001e-05 0.48692 0.0194317)
(3.88085e-05 0.487195 0.0194422)
(-5.50777e-05 0.486076 0.0194681)
(-0.000126092 0.486383 0.0195)
(-9.42073e-05 0.486419 0.019509)
(-6.12287e-05 0.486949 0.0195027)
(-8.76885e-05 0.486795 0.0195204)
(-9.63003e-05 0.486333 0.0195396)
(-8.83298e-05 0.484938 0.0195382)
(-9.098e-05 0.486743 0.0195366)
(-9.64911e-05 0.487449 0.0195273)
(-0.000101895 0.487845 0.0195113)
(-0.000110937 0.488138 0.0194899)
(-0.000124399 0.488378 0.0194662)
(-0.000141012 0.48858 0.0194455)
(-0.000159961 0.488733 0.0194297)
(-0.00018049 0.48887 0.0194205)
(-9.52466e-05 0.48843 0.0194279)
(0.000114294 0.488651 0.0193641)
(2.24096e-05 0.48906 0.019108)
(-0.000194104 0.489029 0.0190039)
(-0.000149266 0.48861 0.0190138)
(-4.43654e-07 0.488504 0.0190948)
(0.000131687 0.488253 0.0191911)
(0.000125266 0.487698 0.0192504)
(4.40353e-05 0.486475 0.0192403)
(1.57608e-06 0.487711 0.0191643)
(-2.05852e-05 0.487879 0.0190722)
(-6.53437e-05 0.487762 0.0190176)
(-0.000108088 0.487907 0.0190046)
(-9.89746e-05 0.486726 0.0188859)
(-7.77827e-05 0.488038 0.0190159)
(-8.46254e-05 0.488142 0.0190415)
(-9.53671e-05 0.488079 0.0190651)
(-9.91959e-05 0.487905 0.0190716)
(-0.000105448 0.487456 0.0190757)
(-0.000112995 0.486855 0.0190751)
(-0.000121088 0.487648 0.0190608)
(-0.00013016 0.487592 0.0190503)
(-0.000140418 0.486585 0.0190361)
(-0.000153547 0.487527 0.0190328)
(-0.000165569 0.487802 0.0190353)
(-0.000176927 0.487949 0.0190448)
(-9.10316e-05 0.487488 0.0190649)
(-4.25803e-05 0.487471 0.0186254)
(-0.000128995 0.488257 0.0184494)
(-0.000143751 0.487369 0.018518)
(-5.90683e-05 0.487716 0.018733)
(6.9076e-05 0.487871 0.0188411)
(0.000147914 0.487746 0.0188588)
(9.96715e-05 0.487267 0.018805)
(-1.53466e-05 0.485066 0.0187309)
(-8.39289e-05 0.486656 0.0186328)
(-8.97627e-05 0.48681 0.0185408)
(-8.80916e-05 0.486904 0.018507)
(-9.11744e-05 0.487485 0.0185307)
(-9.43855e-05 0.487929 0.0185724)
(-9.11443e-05 0.488032 0.0185927)
(-8.71391e-05 0.488079 0.0186092)
(-9.77722e-05 0.488076 0.018626)
(-0.000107599 0.488036 0.0186348)
(-0.000116732 0.487911 0.0186401)
(-0.000123968 0.487459 0.0186473)
(-0.00013037 0.487771 0.0186492)
(-0.000137033 0.487638 0.0186563)
(-0.000144565 0.487187 0.018661)
(-0.000152274 0.487091 0.0186769)
(-0.000158557 0.48701 0.018696)
(-0.000166216 0.48702 0.0187163)
(-8.54051e-05 0.486603 0.0187377)
(-9.1516e-05 0.488662 0.0179887)
(-5.7325e-05 0.489114 0.0180657)
(6.21587e-05 0.489064 0.0183123)
(6.87151e-05 0.489204 0.0184678)
(9.89289e-05 0.489273 0.0185216)
(9.69163e-05 0.489203 0.0184755)
(1.96504e-05 0.488921 0.018383)
(-8.87095e-05 0.488006 0.0183102)
(-0.000146602 0.48795 0.0182589)
(-0.000134676 0.488584 0.0182211)
(-0.000104489 0.48871 0.018211)
(-8.83052e-05 0.488705 0.0182244)
(-7.88132e-05 0.488703 0.0182419)
(-7.24694e-05 0.4887 0.0182677)
(-7.74846e-05 0.488691 0.0182809)
(-9.30856e-05 0.488679 0.0182902)
(-0.000106813 0.488644 0.0182963)
(-0.000116493 0.488601 0.018302)
(-0.000122693 0.488603 0.0183095)
(-0.000127005 0.488519 0.018321)
(-0.000131842 0.488484 0.0183331)
(-0.000137585 0.488522 0.0183481)
(-0.000143858 0.488586 0.0183635)
(-0.000150167 0.488671 0.0183783)
(-0.000160634 0.488777 0.0183889)
(-8.3824e-05 0.48837 0.0184016)
(2.51088e-05 0.489607 0.0177087)
(0.000167593 0.489969 0.0180007)
(0.000225903 0.48973 0.0181267)
(0.0001306 0.489764 0.0181754)
(6.76777e-05 0.48978 0.0181526)
(7.64627e-06 0.489727 0.0180684)
(-6.73221e-05 0.489567 0.0179747)
(-0.000135916 0.489218 0.0179269)
(-0.000157004 0.488259 0.0179342)
(-0.000121545 0.488651 0.0179499)
(-7.68072e-05 0.489258 0.017972)
(-5.57346e-05 0.489506 0.0179969)
(-4.96301e-05 0.489634 0.0180207)
(-5.43009e-05 0.489705 0.0180345)
(-6.90996e-05 0.48974 0.0180356)
(-8.8545e-05 0.489754 0.0180308)
(-0.000103351 0.489754 0.0180274)
(-0.000111589 0.489749 0.0180263)
(-0.000115857 0.489737 0.0180297)
(-0.000119646 0.489732 0.0180349)
(-0.00012441 0.489738 0.0180395)
(-0.000130558 0.489743 0.0180432)
(-0.000138731 0.489756 0.0180459)
(-0.000150127 0.489776 0.0180443)
(-0.000165225 0.489792 0.0180375)
(-8.68229e-05 0.489318 0.0180373)
(0.000181101 0.489141 0.01783)
(0.000326481 0.489343 0.0180785)
(0.000212522 0.489075 0.0180012)
(7.97082e-05 0.489413 0.0179339)
(-1.71276e-05 0.489627 0.01786)
(-8.61893e-05 0.489727 0.0177774)
(-0.000125831 0.489739 0.0177229)
(-0.000139975 0.48965 0.017716)
(-0.000124155 0.489407 0.0177524)
(-7.86428e-05 0.488904 0.0177989)
(-3.63862e-05 0.4876 0.0178446)
(-2.19028e-05 0.48882 0.0178419)
(-2.86906e-05 0.489264 0.0178336)
(-4.78754e-05 0.489489 0.0178141)
(-7.30576e-05 0.489626 0.0177926)
(-9.51462e-05 0.489713 0.0177649)
(-0.000107474 0.48977 0.0177436)
(-0.000112439 0.48981 0.0177279)
(-0.000114069 0.48984 0.0177177)
(-0.000118733 0.489863 0.017711)
(-0.000125876 0.489887 0.0177016)
(-0.000133502 0.489909 0.0176924)
(-0.000144534 0.489931 0.0176814)
(-0.000161152 0.48995 0.0176633)
(-0.00017911 0.489953 0.0176476)
(-9.39837e-05 0.48946 0.0176303)
(0.000232017 0.489107 0.017849)
(0.000281191 0.48949 0.0178314)
(5.3181e-05 0.489088 0.017653)
(-2.13453e-05 0.487852 0.0175803)
(-9.04278e-05 0.488735 0.0175253)
(-0.000137865 0.489172 0.0174887)
(-0.000134743 0.489302 0.0174884)
(-0.000107161 0.489363 0.0175228)
(-7.28394e-05 0.489381 0.0175698)
(-3.94785e-05 0.489346 0.0176044)
(-1.7129e-05 0.489105 0.017618)
(-1.77947e-05 0.489352 0.0175817)
(-4.07421e-05 0.488911 0.0175485)
(-6.9976e-05 0.48692 0.0175062)
(-9.68069e-05 0.488267 0.0174743)
(-0.000114909 0.488972 0.0174165)
(-0.00012402 0.48927 0.0173771)
(-0.000125119 0.48945 0.0173462)
(-0.000123032 0.489378 0.0173294)
(-0.000128298 0.489242 0.0173203)
(-0.000137484 0.489347 0.0172995)
(-0.000145011 0.489401 0.0172829)
(-0.000157553 0.489417 0.0172671)
(-0.000173572 0.489422 0.0172495)
(-0.000191446 0.489405 0.0172328)
(-0.000100799 0.488876 0.0172132)
(0.000155079 0.488787 0.0173521)
(0.00010916 0.489015 0.0170794)
(-8.92469e-05 0.488618 0.0169566)
(-8.43792e-05 0.488075 0.0169287)
(-9.67461e-05 0.485944 0.0169918)
(-0.000110461 0.487962 0.0169735)
(-9.31206e-05 0.488172 0.0170252)
(-5.73728e-05 0.488296 0.0170765)
(-3.06424e-05 0.488386 0.017122)
(-2.12177e-05 0.488497 0.0171428)
(-2.73051e-05 0.488427 0.0171404)
(-5.20005e-05 0.488891 0.017091)
(-8.94086e-05 0.48881 0.0170488)
(-0.000121373 0.488688 0.0170026)
(-0.000139642 0.48852 0.0169661)
(-0.000146981 0.488291 0.0169277)
(-0.000148609 0.487942 0.0168984)
(-0.000145757 0.48706 0.0168731)
(-0.000142649 0.487193 0.0168656)
(-0.000139439 0.486463 0.0168781)
(-0.000140245 0.487242 0.0168412)
(-0.000147678 0.487589 0.0168175)
(-0.000162924 0.487756 0.0167991)
(-0.000179403 0.488229 0.0167758)
(-0.000197531 0.488364 0.0167661)
(-0.000104559 0.487894 0.0167652)
(3.32755e-05 0.48851 0.0164503)
(-3.37862e-05 0.48882 0.0161628)
(-9.89488e-05 0.488501 0.0162005)
(-5.68141e-05 0.488172 0.016267)
(-4.13058e-05 0.487392 0.0163525)
(-4.02375e-05 0.487775 0.0164144)
(-3.60432e-05 0.488337 0.0164651)
(-1.89298e-05 0.488575 0.0165099)
(-1.62086e-05 0.488695 0.0165336)
(-3.31215e-05 0.488777 0.0165326)
(-6.16859e-05 0.4888 0.0165096)
(-9.85058e-05 0.488781 0.016474)
(-0.000136072 0.488731 0.0164368)
(-0.00016135 0.488657 0.0164038)
(-0.000171715 0.488569 0.0163783)
(-0.000170716 0.488477 0.0163601)
(-0.000163685 0.488385 0.0163497)
(-0.000156071 0.488301 0.0163436)
(-0.000150295 0.488234 0.016341)
(-0.000140712 0.488184 0.01634)
(-0.000135397 0.488006 0.0163342)
(-0.000143035 0.487748 0.0163331)
(-0.000157622 0.487432 0.0163299)
(-0.000176564 0.48701 0.0163154)
(-0.000199322 0.487611 0.0163082)
(-0.00010509 0.487283 0.0163247)
(-4.05827e-05 0.489495 0.01553)
(-6.29999e-05 0.489823 0.0154918)
(-6.01325e-06 0.489467 0.0156205)
(3.83156e-05 0.489194 0.0157302)
(3.95117e-05 0.488644 0.0158213)
(2.81121e-05 0.487854 0.0159021)
(1.60582e-05 0.489005 0.0159227)
(7.37901e-06 0.489402 0.0159421)
(-1.48545e-05 0.489615 0.0159423)
(-5.15934e-05 0.489732 0.0159278)
(-9.41877e-05 0.489787 0.0159033)
(-0.000133148 0.489797 0.0158736)
(-0.000162301 0.48978 0.0158526)
(-0.000177165 0.489745 0.0158425)
(-0.000178218 0.489701 0.0158423)
(-0.000170029 0.489655 0.0158489)
(-0.000157981 0.489617 0.0158597)
(-0.000146667 0.489594 0.0158715)
(-0.000138673 0.489604 0.0158827)
(-0.000134463 0.489646 0.0158912)
(-0.000136586 0.489575 0.0158942)
(-0.000146829 0.489461 0.0158951)
(-0.000161149 0.489381 0.0158917)
(-0.000181623 0.489316 0.0158863)
(-0.000205301 0.489252 0.0158757)
(-0.000107595 0.488755 0.0158794)
(-1.03871e-05 0.489692 0.0150386)
(3.8142e-05 0.489821 0.0151652)
(0.000115373 0.489346 0.0153063)
(0.000119879 0.489021 0.0153771)
(9.24034e-05 0.488478 0.0154197)
(6.47695e-05 0.48694 0.0154667)
(3.89392e-05 0.488645 0.0154427)
(1.18093e-05 0.489114 0.0154318)
(-2.49599e-05 0.489388 0.0154126)
(-6.83511e-05 0.489574 0.0153912)
(-0.000110639 0.489706 0.0153736)
(-0.000143706 0.489801 0.0153636)
(-0.00016343 0.489868 0.0153644)
(-0.000168986 0.489913 0.0153755)
(-0.000163612 0.48994 0.0153932)
(-0.000152343 0.489953 0.0154134)
(-0.000140162 0.489955 0.0154324)
(-0.000130936 0.489946 0.0154478)
(-0.000126599 0.489931 0.0154581)
(-0.000128296 0.489909 0.0154624)
(-0.00013633 0.489882 0.0154592)
(-0.00015074 0.489852 0.0154507)
(-0.000168499 0.489819 0.0154387)
(-0.00018989 0.489784 0.0154228)
(-0.000214972 0.489741 0.0154076)
(-0.000113312 0.489279 0.0154008)
(8.53657e-05 0.489392 0.0148947)
(0.000190001 0.489502 0.0150766)
(0.000185917 0.488975 0.015142)
(0.000134481 0.48864 0.015137)
(8.57825e-05 0.488116 0.0151142)
(5.22148e-05 0.48582 0.0151188)
(2.37211e-05 0.488254 0.0150532)
(-1.02639e-05 0.488748 0.0150173)
(-4.80933e-05 0.489041 0.0149837)
(-8.59242e-05 0.489246 0.0149602)
(-0.000118697 0.489399 0.0149488)
(-0.000140728 0.489515 0.0149486)
(-0.000150325 0.489605 0.014959)
(-0.000149203 0.489675 0.0149766)
(-0.000141574 0.489727 0.0149966)
(-0.000132154 0.489766 0.0150146)
(-0.000124703 0.489793 0.0150271)
(-0.000121779 0.489811 0.0150324)
(-0.000124373 0.489821 0.0150297)
(-0.000132781 0.489824 0.0150192)
(-0.000146591 0.489821 0.0150023)
(-0.000164951 0.489813 0.0149808)
(-0.000185862 0.489802 0.0149574)
(-0.000207967 0.489787 0.014932)
(-0.00023325 0.489759 0.0149085)
(-0.000122977 0.489315 0.0148937)
(0.000172141 0.488953 0.0147971)
(0.000278253 0.48904 0.0149188)
(0.000165574 0.488436 0.0148806)
(8.49884e-05 0.488074 0.0148095)
(3.1952e-05 0.487536 0.0147435)
(5.22829e-06 0.485392 0.0147127)
(-1.68575e-05 0.487769 0.0146486)
(-4.82371e-05 0.488261 0.0146106)
(-7.69054e-05 0.488566 0.0145805)
(-0.000100699 0.488788 0.0145596)
(-0.000121594 0.488962 0.0145496)
(-0.000134144 0.489101 0.0145502)
(-0.000137011 0.489215 0.0145584)
(-0.00013351 0.489309 0.0145697)
(-0.000127803 0.489387 0.0145794)
(-0.000123664 0.48945 0.0145839)
(-0.000123653 0.489501 0.014581)
(-0.00012899 0.489542 0.0145698)
(-0.00013963 0.489573 0.0145505)