/*--------------------------------*- C++ -*----------------------------------*\
  =========                 |
  \\      /  F ield         | OpenFOAM: The Open Source CFD Toolbox
   \\    /   O peration     | Website:  https://openfoam.org
    \\  /    A nd           | Version:  7
     \\/     M anipulation  |
\*---------------------------------------------------------------------------*/
FoamFile
{
    version     2.0;
    format      ascii;
    class       volVectorField;
    location    "0.01";
    object      U.air;
}
// * * * * * * * * * * * * * * * * * * * * * * * * * * * * * * * * * * * * * //

dimensions      [0 1 -1 0 0 0 0];

internalField   nonuniform List<vector> 
10790
(
(-0.00216819 0 0.00211031)
(-0.00716072 0 0.00198429)
(-0.0125009 0 0.00200988)
(-0.0173385 0 0.0023254)
(-0.0222737 0 0.00292157)
(-0.0285487 0 0.00367843)
(-0.0373413 0 0.00464014)
(-0.0489447 0 0.00629075)
(-0.0634575 0 0.00900939)
(-0.0868433 0 0.0134792)
(-0.112542 0 0.0265721)
(-0.157359 0 0.120201)
(-0.260063 0 0.151675)
(-0.0261331 0 0.0242695)
(-0.0461338 0 0.031106)
(-0.0330626 0 0.0341126)
(-0.0257746 0 0.0357745)
(-0.0202782 0 0.0366013)
(-0.0160672 0 0.0370511)
(-0.0127467 0 0.0373469)
(-0.0100236 0 0.0375498)
(-0.00772828 0 0.037686)
(-0.00573609 0 0.037771)
(-0.00395843 0 0.0378252)
(-0.00233978 0 0.0378564)
(-0.000772575 0 0.0377875)
(-0.00230015 0 0.00586598)
(-0.00728417 0 0.0058588)
(-0.0122069 0 0.00614634)
(-0.0165037 0 0.00693776)
(-0.0210239 0 0.00811959)
(-0.0269619 0 0.00955592)
(-0.034913 0 0.0117807)
(-0.0448579 0 0.0166253)
(-0.0571284 0 0.0251195)
(-0.0710904 0 0.0362193)
(-0.0796224 0 0.0603337)
(-0.0806507 0 0.102342)
(-0.141331 0 0.102773)
(-0.0124558 0 -0.000364966)
(-0.0344814 0 0.0115131)
(-0.028163 0 0.0174015)
(-0.0230755 0 0.0209262)
(-0.0188021 0 0.0230293)
(-0.0151546 0 0.0243518)
(-0.0121155 0 0.0252509)
(-0.00958065 0 0.025888)
(-0.00742483 0 0.0263496)
(-0.00553002 0 0.0266827)
(-0.00381158 0 0.0269278)
(-0.00230397 0 0.0271148)
(-0.000805728 0 0.0271535)
(-0.00219786 0 0.00921148)
(-0.00693036 0 0.00955964)
(-0.0114947 0 0.0102111)
(-0.0154768 0 0.0113352)
(-0.0198085 0 0.0127616)
(-0.025097 0 0.0142868)
(-0.030601 0 0.0162938)
(-0.0361246 0 0.0206808)
(-0.0448747 0 0.0301651)
(-0.0530714 0 0.045639)
(-0.0497088 0 0.0662652)
(-0.024237 0 0.0871959)
(-0.0847463 0 0.0767322)
(-0.0145789 0 -8.96485e-06)
(-0.0269915 0 0.00775183)
(-0.0236529 0 0.0132238)
(-0.0201255 0 0.0169633)
(-0.0168109 0 0.0195937)
(-0.0138067 0 0.0214496)
(-0.0111809 0 0.0227654)
(-0.00890459 0 0.0237083)
(-0.00691965 0 0.024388)
(-0.00514869 0 0.0248805)
(-0.00352069 0 0.0252165)
(-0.00210305 0 0.0254964)
(-0.000732459 0 0.0256788)
(-0.0019881 0 0.0124135)
(-0.0063434 0 0.0128552)
(-0.0104881 0 0.0136804)
(-0.0140303 0 0.0150484)
(-0.0181698 0 0.0172455)
(-0.0235585 0 0.0203814)
(-0.0287436 0 0.0243876)
(-0.0314119 0 0.0282575)
(-0.0328257 0 0.0318161)
(-0.035851 0 0.0424563)
(-0.0345773 0 0.056982)
(-0.0183406 0 0.0675988)
(-0.0720842 0 0.0846636)
(-0.0117245 0 0.000113965)
(-0.0212239 0 0.00565516)
(-0.0192251 0 0.0104312)
(-0.0169306 0 0.0141258)
(-0.0144724 0 0.0169691)
(-0.0120903 0 0.0191236)
(-0.00993008 0 0.0207518)
(-0.00800822 0 0.0219738)
(-0.00628721 0 0.0228791)
(-0.0047249 0 0.0235555)
(-0.00321229 0 0.0239725)
(-0.00185463 0 0.024263)
(-0.000630457 0 0.0244747)
(-0.0018026 0 0.0152546)
(-0.00573635 0 0.0155528)
(-0.00936358 0 0.0163002)
(-0.0120041 0 0.0172591)
(-0.0146131 0 0.0190157)
(-0.0181395 0 0.0221125)
(-0.0229376 0 0.0274729)
(-0.0289341 0 0.0338557)
(-0.0310771 0 0.0370959)
(-0.0285015 0 0.0411433)
(-0.0253309 0 0.0499301)
(-0.0163634 0 0.0563847)
(-0.058724 0 0.0854075)
(-0.0095462 0 0.000120558)
(-0.0166965 0 0.00466146)
(-0.015385 0 0.00867244)
(-0.0137809 0 0.0121316)
(-0.0119596 0 0.0150013)
(-0.0101308 0 0.0172851)
(-0.00840814 0 0.0190777)
(-0.00683355 0 0.0204741)
(-0.00537878 0 0.021543)
(-0.00408257 0 0.022367)
(-0.00283 0 0.0229359)
(-0.00161158 0 0.0232703)
(-0.000525784 0 0.0234883)
(-0.00174047 0 0.0177886)
(-0.00537373 0 0.0181244)
(-0.00883246 0 0.018947)
(-0.0113852 0 0.0198609)
(-0.0134426 0 0.0210999)
(-0.0153206 0 0.02277)
(-0.0172974 0 0.0262668)
(-0.0220282 0 0.0325893)
(-0.0257142 0 0.039799)
(-0.0232326 0 0.04392)
(-0.0203082 0 0.0483282)
(-0.0155252 0 0.0519782)
(-0.044983 0 0.0810242)
(-0.00760606 0 0.000113014)
(-0.0126852 0 0.00403971)
(-0.011927 0 0.00765273)
(-0.0107855 0 0.0109231)
(-0.00946452 0 0.0137131)
(-0.00812475 0 0.0160062)
(-0.00682561 0 0.0178461)
(-0.0056078 0 0.0193145)
(-0.00444449 0 0.0204752)
(-0.00336905 0 0.0213514)
(-0.00233234 0 0.0220192)
(-0.00131479 0 0.0224332)
(-0.000417027 0 0.0226476)
(-0.00152604 0 0.019588)
(-0.00466525 0 0.0203533)
(-0.00768004 0 0.0213584)
(-0.00990763 0 0.0231906)
(-0.0117798 0 0.0254303)
(-0.0131081 0 0.0273348)
(-0.0133761 0 0.0293555)
(-0.015763 0 0.0329623)
(-0.0199187 0 0.0395425)
(-0.0199885 0 0.0441668)
(-0.0182106 0 0.0467538)
(-0.0155956 0 0.0496711)
(-0.0330202 0 0.0742996)
(-0.00611153 0 0.000102232)
(-0.00918079 0 0.00345671)
(-0.00865709 0 0.00681158)
(-0.00789011 0 0.00991812)
(-0.00701334 0 0.0126197)
(-0.00610568 0 0.0149117)
(-0.00518576 0 0.0168003)
(-0.00427349 0 0.0183366)
(-0.00339627 0 0.0196029)
(-0.00258077 0 0.0205763)
(-0.00177798 0 0.0213016)
(-0.000998875 0 0.0217514)
(-0.000316218 0 0.0219536)
(-0.0010516 0 0.0204464)
(-0.00371289 0 0.0213309)
(-0.00607716 0 0.0219)
(-0.00742108 0 0.0241028)
(-0.00940877 0 0.0270039)
(-0.0114975 0 0.0294268)
(-0.0118124 0 0.03085)
(-0.0121103 0 0.0325007)
(-0.0147143 0 0.0373459)
(-0.016127 0 0.0428328)
(-0.0157153 0 0.0465979)
(-0.0153699 0 0.0505578)
(-0.022695 0 0.0665594)
(-0.00472359 0 9.12748e-05)
(-0.00601717 0 0.0032415)
(-0.00560802 0 0.00635756)
(-0.00513125 0 0.00925125)
(-0.00459905 0 0.0118389)
(-0.00405088 0 0.0141208)
(-0.00348962 0 0.0160762)
(-0.00288041 0 0.0176816)
(-0.00226688 0 0.0189826)
(-0.00171865 0 0.0200047)
(-0.00119147 0 0.0207622)
(-0.000680624 0 0.0212239)
(-0.000219838 0 0.0214386)
(-0.000724399 0 0.021486)
(-0.00331668 0 0.0218012)
(-0.00498735 0 0.0218119)
(-0.00493676 0 0.0236604)
(-0.00659632 0 0.0264416)
(-0.00936202 0 0.0292856)
(-0.01038 0 0.0312592)
(-0.00944401 0 0.032916)
(-0.00982387 0 0.0367986)
(-0.0108639 0 0.0425869)
(-0.011167 0 0.0484063)
(-0.0145068 0 0.0566842)
(-0.0139348 0 0.0550293)
(-0.00295553 0 0.000103869)
(-0.00297499 0 0.00323582)
(-0.00277683 0 0.00621463)
(-0.00255076 0 0.00899775)
(-0.00227201 0 0.0115236)
(-0.0019841 0 0.0137708)
(-0.00172589 0 0.0157367)
(-0.00145249 0 0.0174064)
(-0.00114403 0 0.0187444)
(-0.000857546 0 0.0197789)
(-0.000599085 0 0.0205463)
(-0.000344276 0 0.0210295)
(-0.000108718 0 0.0212595)
(-0.000806735 0 0.0231115)
(-0.00346608 0 0.0227373)
(-0.00427412 0 0.0228769)
(-0.00291227 0 0.0242469)
(-0.00393265 0 0.0264206)
(-0.00680492 0 0.0291405)
(-0.00827283 0 0.0315601)
(-0.00672295 0 0.0337124)
(-0.00525361 0 0.036954)
(-0.00474373 0 0.042011)
(-0.00251238 0 0.0483311)
(0.00308703 0 0.0581177)
(-0.00119142 0 0.0118464)
(0.00617393 0 0.00424268)
(1.07697e-05 0 0.00274841)
(-3.48464e-06 0 0.00427222)
(-6.35522e-06 0 0.00564422)
(-8.40827e-06 0 0.00681207)
(-1.03268e-05 0 0.0077968)
(-1.15301e-05 0 0.00872143)
(-1.11027e-05 0 0.00960234)
(-9.67024e-06 0 0.0103072)
(-7.92346e-06 0 0.010822)
(-6.19008e-06 0 0.0111991)
(-4.26453e-06 0 0.0114866)
(2.36204e-05 0 0.0116303)
(-0.00115402 0 0.0239992)
(-0.00361936 0 0.0234923)
(-0.00352508 0 0.0243344)
(-0.00148461 0 0.0253115)
(-0.00183262 0 0.0266579)
(-0.00435695 0 0.0287922)
(-0.00592448 0 0.0311618)
(-0.00419821 0 0.0334268)
(-0.00174227 0 0.0358714)
(0.000222887 0 0.0392301)
(0.00481425 0 0.043583)
(0.015775 0 0.0486919)
(0.021996 0 0.0379521)
(0.0206312 0 0.0225416)
(0.00449903 0 0.0133369)
(-0.00734245 0 0.0212622)
(-0.0141211 0 0.0285625)
(-0.0172232 0 0.0358663)
(-0.0176153 0 0.042704)
(-0.0163941 0 0.0486963)
(-0.0143434 0 0.0540663)
(-0.0118752 0 0.0587323)
(-0.00933086 0 0.062466)
(-0.00686177 0 0.065223)
(-0.00443711 0 0.066884)
(-0.00160834 0 0.0669057)
(-0.00136845 0 0.02337)
(-0.0032164 0 0.0234157)
(-0.00251017 0 0.0249135)
(-0.000647856 0 0.0256202)
(-0.000544325 0 0.0261788)
(-0.0024186 0 0.0275187)
(-0.00375657 0 0.029515)
(-0.00214313 0 0.0315903)
(0.000394538 0 0.0333354)
(0.00277807 0 0.0352334)
(0.00695117 0 0.0371096)
(0.0134976 0 0.0374299)
(0.0199865 0 0.0318567)
(0.0209136 0 0.0187846)
(0.0166517 0 0.0146896)
(0.0129302 0 0.0129605)
(0.0102529 0 0.0107354)
(0.00755873 0 0.00904988)
(0.00504457 0 0.00808534)
(0.00290404 0 0.00775344)
(0.00128334 0 0.00783995)
(0.000217304 0 0.00820507)
(-0.000362836 0 0.0086515)
(-0.000467971 0 0.00905157)
(-0.000334665 0 0.00970815)
(-0.000120652 0 0.00955989)
(-0.00119773 0 0.0220573)
(-0.00221257 0 0.0228354)
(-0.00138624 0 0.0244474)
(-0.000251289 0 0.0249387)
(1.5082e-05 0 0.0249856)
(-0.00110713 0 0.0256425)
(-0.00195572 0 0.0271392)
(-0.000481456 0 0.0288231)
(0.00179937 0 0.030027)
(0.00390541 0 0.0313154)
(0.00695031 0 0.0319737)
(0.0109377 0 0.0312594)
(0.0143361 0 0.0276552)
(0.0151183 0 0.022213)
(0.0136031 0 0.0184306)
(0.0115966 0 0.0164358)
(0.00950926 0 0.015013)
(0.00733734 0 0.0141243)
(0.00526579 0 0.0136895)
(0.00345806 0 0.0136923)
(0.00205026 0 0.0139484)
(0.00104472 0 0.0143755)
(0.000380769 0 0.0148185)
(0.000468477 0 0.0151031)
(0.000287982 0 0.0153174)
(-0.00012419 0 0.0152883)
(-0.000691115 0 0.0212128)
(-0.000977175 0 0.0224191)
(-0.000470356 0 0.0236233)
(-0.000123685 0 0.0238976)
(0.000139735 0 0.0237501)
(-0.000320756 0 0.0240483)
(-0.000656621 0 0.025157)
(0.000667169 0 0.0264398)
(0.00281526 0 0.0271913)
(0.00468198 0 0.0281778)
(0.00690276 0 0.0284962)
(0.00944164 0 0.027836)
(0.0114823 0 0.0255919)
(0.0121064 0 0.0225417)
(0.0112932 0 0.0199715)
(0.0100011 0 0.0180989)
(0.00841732 0 0.0167138)
(0.00668435 0 0.0157635)
(0.00497665 0 0.0152053)
(0.00346643 0 0.0149585)
(0.00225443 0 0.0150042)
(0.00131847 0 0.0150998)
(0.000547748 0 0.0151715)
(0.000186734 0 0.0154391)
(1.6482e-05 0 0.0152152)
(-7.49333e-05 0 0.0152545)
(-0.00010248 0 0.0212393)
(4.58959e-05 0 0.0223537)
(4.46262e-05 0 0.0229505)
(-0.000128005 0 0.0230232)
(0.000160184 0 0.022869)
(0.000262408 0 0.0230726)
(0.000375923 0 0.0239668)
(0.0015009 0 0.0249595)
(0.00348522 0 0.0253402)
(0.00517656 0 0.0256687)
(0.00662358 0 0.025644)
(0.00810783 0 0.0248239)
(0.0092963 0 0.0231557)
(0.00979528 0 0.0208847)
(0.00940543 0 0.0188965)
(0.00851783 0 0.0172266)
(0.00729859 0 0.0159165)
(0.0059037 0 0.0149004)
(0.00452699 0 0.0142467)
(0.00329696 0 0.0139446)
(0.00221349 0 0.0140015)
(0.00124847 0 0.0142268)
(0.00074378 0 0.0143404)
(0.000547401 0 0.0146685)
(0.000192422 0 0.0148117)
(-1.31745e-05 0 0.0148343)
(0.000308458 0 0.0216685)
(0.000593522 0 0.0223023)
(0.000172226 0 0.0224215)
(-0.000203107 0 0.0223821)
(0.000186266 0 0.0222749)
(0.000746877 0 0.0224378)
(0.00118285 0 0.0231612)
(0.00200783 0 0.0239782)
(0.00350302 0 0.0242962)
(0.00497529 0 0.0241772)
(0.00608351 0 0.0239299)
(0.00702068 0 0.0232037)
(0.00771713 0 0.0220478)
(0.00802127 0 0.0204746)
(0.00777114 0 0.0188915)
(0.00710743 0 0.0174411)
(0.00614846 0 0.0161869)
(0.00505843 0 0.0151801)
(0.00405454 0 0.0144293)
(0.00324432 0 0.0140443)
(0.00252479 0 0.0139794)
(0.00164466 0 0.0141864)
(0.00098997 0 0.0144227)
(0.000666391 0 0.0144971)
(0.000249214 0 0.0145147)
(4.92745e-06 0 0.0144786)
(0.000450079 0 0.0216795)
(0.000704435 0 0.0218445)
(0.000112198 0 0.021785)
(-0.000270534 0 0.0218068)
(0.000213268 0 0.0218165)
(0.00112356 0 0.0219338)
(0.00187618 0 0.0224335)
(0.00260846 0 0.02307)
(0.00367809 0 0.0234625)
(0.00481649 0 0.0233638)
(0.00567421 0 0.0230653)
(0.00627317 0 0.0224442)
(0.00663615 0 0.0215441)
(0.00671919 0 0.0203531)
(0.0064491 0 0.0190792)
(0.00588122 0 0.0178659)
(0.00508825 0 0.0168001)
(0.00419549 0 0.0159191)
(0.00340394 0 0.0152116)
(0.00283287 0 0.0146441)
(0.00235089 0 0.0143076)
(0.0016835 0 0.0141568)
(0.001049 0 0.0142168)
(0.00064543 0 0.0141975)
(0.000236687 0 0.0141644)
(7.52459e-06 0 0.0141231)
(0.000405466 0 0.0209146)
(0.000621977 0 0.0208293)
(0.000124939 0 0.0208303)
(-0.00017183 0 0.0210504)
(0.000309491 0 0.0212741)
(0.001346 0 0.0214046)
(0.00228901 0 0.0216355)
(0.00301353 0 0.0219342)
(0.00379109 0 0.0220985)
(0.00458518 0 0.0218796)
(0.00518651 0 0.021402)
(0.00554057 0 0.0206905)
(0.00568191 0 0.0197957)
(0.00562223 0 0.0187435)
(0.00535055 0 0.0176639)
(0.00489032 0 0.0166811)
(0.00426313 0 0.015876)
(0.0035332 0 0.0152559)
(0.00286236 0 0.0147937)
(0.00239965 0 0.0144063)
(0.00205269 0 0.0140842)
(0.0015652 0 0.0138965)
(0.00103171 0 0.0138857)
(0.000623939 0 0.0138747)
(0.000237499 0 0.0138574)
(1.77579e-05 0 0.0138255)
(0.000305237 0 0.0195768)
(0.000550865 0 0.0194588)
(0.000317997 0 0.0195697)
(0.000162648 0 0.0199712)
(0.000558667 0 0.0204219)
(0.00147442 0 0.0206653)
(0.00239118 0 0.0207494)
(0.00305977 0 0.0207681)
(0.00362532 0 0.0206495)
(0.00413875 0 0.0202639)
(0.00451683 0 0.01965)
(0.00470933 0 0.0188703)
(0.00474044 0 0.0179906)
(0.00464342 0 0.0170549)
(0.00444091 0 0.0161453)
(0.00414284 0 0.0153521)
(0.00372436 0 0.0147475)
(0.0031781 0 0.0143585)
(0.0026023 0 0.0141393)
(0.00216212 0 0.0139772)
(0.00185338 0 0.0137991)
(0.00147486 0 0.0136582)
(0.00102502 0 0.0136317)
(0.000626142 0 0.0136274)
(0.00024764 0 0.0136121)
(2.75455e-05 0 0.0135697)
(0.000231877 0 0.0181987)
(0.000547518 0 0.0181438)
(0.000615529 0 0.0182732)
(0.000659046 0 0.0187059)
(0.000986063 0 0.0192566)
(0.00166458 0 0.0196189)
(0.00238874 0 0.0197104)
(0.00291876 0 0.0196348)
(0.00330404 0 0.0194055)
(0.00361158 0 0.0189876)
(0.0038276 0 0.0184032)
(0.00392436 0 0.0177142)
(0.00391361 0 0.0169786)
(0.00382449 0 0.0162342)
(0.0036915 0 0.015519)
(0.00352826 0 0.0148777)
(0.00329618 0 0.0143617)
(0.00294214 0 0.0140157)
(0.00249058 0 0.0138347)
(0.00206842 0 0.0137397)
(0.00174264 0 0.0136271)
(0.00140212 0 0.0135057)
(0.00100174 0 0.0134452)
(0.000612578 0 0.0134111)
(0.000238037 0 0.0133734)
(2.56122e-05 0 0.01331)
(0.000196263 0 0.0172379)
(0.000559396 0 0.017238)
(0.000857453 0 0.0172968)
(0.00112106 0 0.0176034)
(0.0014488 0 0.0180571)
(0.00191702 0 0.0184055)
(0.00240708 0 0.0185105)
(0.00276376 0 0.0184282)
(0.00299611 0 0.0182025)
(0.0031633 0 0.0178472)
(0.00327718 0 0.0173877)
(0.00332223 0 0.0168712)
(0.00329907 0 0.0163375)
(0.00322175 0 0.01581)
(0.00311957 0 0.0152978)
(0.00301531 0 0.0148063)
(0.00288439 0 0.0143569)
(0.00266559 0 0.0139927)
(0.00233504 0 0.0137465)
(0.00195986 0 0.0135956)
(0.00162481 0 0.013461)
(0.00129756 0 0.0133191)
(0.000932815 0 0.0132158)
(0.000563525 0 0.0131455)
(0.000203854 0 0.0130864)
(1.32319e-05 0 0.01301)
(0.000179092 0 0.0167916)
(0.000544382 0 0.0168177)
(0.000963976 0 0.0168049)
(0.00139977 0 0.0169339)
(0.00176771 0 0.0171683)
(0.00210668 0 0.0173594)
(0.00241149 0 0.0173887)
(0.00261984 0 0.0172707)
(0.00273902 0 0.0170486)
(0.00281874 0 0.0167466)
(0.00287758 0 0.0163868)
(0.0029017 0 0.0160015)
(0.00288 0 0.0156163)
(0.00281199 0 0.0152446)
(0.00271406 0 0.014886)
(0.00261177 0 0.0145264)
(0.0025036 0 0.0141609)
(0.00234737 0 0.0138148)
(0.00210348 0 0.0135305)
(0.00179028 0 0.0133241)
(0.00147341 0 0.0131606)
(0.00116334 0 0.013008)
(0.000832678 0 0.0128874)
(0.000493419 0 0.0128027)
(0.000158717 0 0.0127388)
(-3.07142e-06 0 0.0126599)
(0.000170632 0 0.0166281)
(0.000514444 0 0.0166735)
(0.000963683 0 0.0166433)
(0.00147505 0 0.0166393)
(0.00186348 0 0.016655)
(0.00213204 0 0.0166399)
(0.00232105 0 0.0165307)
(0.0024329 0 0.0163291)
(0.00248601 0 0.0160686)
(0.00251885 0 0.0157716)
(0.00255122 0 0.0154478)
(0.00257166 0 0.0151148)
(0.00256197 0 0.0147902)
(0.00251055 0 0.0144859)
(0.00241992 0 0.0142037)
(0.00230896 0 0.01393)
(0.00219119 0 0.0136476)
(0.00205142 0 0.0133603)
(0.00185686 0 0.0130988)
(0.00159945 0 0.0128893)
(0.00131694 0 0.0127273)
(0.00103151 0 0.0125895)
(0.000732951 0 0.0124802)
(0.000425452 0 0.0124034)
(0.000115422 0 0.0123473)
(-1.96194e-05 0 0.0122725)
(0.000174046 0 0.0164525)
(0.00050344 0 0.0165224)
(0.000923821 0 0.0165191)
(0.00141108 0 0.0164503)
(0.00176832 0 0.0163212)
(0.00198567 0 0.0161432)
(0.0021088 0 0.0159069)
(0.00216961 0 0.0156212)
(0.00219593 0 0.0153101)
(0.00221399 0 0.0149915)
(0.00223787 0 0.0146681)
(0.00226103 0 0.0143439)
(0.00226731 0 0.0140281)
(0.00224048 0 0.013736)
(0.00217228 0 0.0134738)
(0.00206999 0 0.0132346)
(0.00194867 0 0.0130058)
(0.00181276 0 0.0127774)
(0.00164466 0 0.0125621)
(0.00142842 0 0.0123803)
(0.00118139 0 0.0122388)
(0.000922652 0 0.0121247)
(0.000651539 0 0.0120356)
(0.00037046 0 0.0119724)
(7.98404e-05 0 0.0119239)
(-3.37548e-05 0 0.0118568)
(0.000191415 0 0.0161026)
(0.000525674 0 0.0161939)
(0.000886597 0 0.0162183)
(0.00128201 0 0.0161252)
(0.00156423 0 0.0159292)
(0.00172843 0 0.0156675)
(0.00181255 0 0.015362)
(0.00185146 0 0.0150336)
(0.00187233 0 0.0146995)
(0.00189328 0 0.0143698)
(0.00192073 0 0.0140462)
(0.00195 0 0.0137272)
(0.00196906 0 0.0134179)
(0.00196595 0 0.0131247)
(0.00192894 0 0.0128567)
(0.00185302 0 0.0126215)
(0.00174585 0 0.0124127)
(0.00161923 0 0.0122181)
(0.00146994 0 0.0120365)
(0.00128445 0 0.0118793)
(0.00106802 0 0.0117541)
(0.00083368 0 0.0116546)
(0.000584748 0 0.0115769)
(0.000322828 0 0.0115195)
(4.94397e-05 0 0.0114714)
(-4.45081e-05 0 0.0114085)
(0.000218107 0 0.0155548)
(0.000564641 0 0.0156529)
(0.000849645 0 0.0156697)
(0.00112908 0 0.0155577)
(0.00132231 0 0.0153404)
(0.00143305 0 0.0150589)
(0.00149113 0 0.0147442)
(0.00152405 0 0.0144199)
(0.00154922 0 0.0141)
(0.00157745 0 0.0137879)
(0.00161183 0 0.0134827)
(0.00164825 0 0.0131825)
(0.00167851 0 0.0128867)
(0.00169313 0 0.0126036)
(0.00168227 0 0.0123411)
(0.0016373 0 0.0121045)
(0.00155563 0 0.0118978)
(0.00144605 0 0.0117148)
(0.00131444 0 0.0115482)
(0.00115342 0 0.0114019)
(0.000962525 0 0.0112811)
(0.00074993 0 0.0111829)
(0.000519961 0 0.0111046)
(0.000273585 0 0.0110441)
(1.62831e-05 0 0.0109944)
(-5.6354e-05 0 0.0109293)
(0.000244907 0 0.0148535)
(0.000589212 0 0.014937)
(0.000787009 0 0.0149098)
(0.000960839 0 0.0147707)
(0.00107821 0 0.0145486)
(0.00114755 0 0.0142789)
(0.00118993 0 0.0139904)
(0.0012237 0 0.0137003)
(0.00125643 0 0.0134177)
(0.00129167 0 0.0131432)
(0.00133103 0 0.0128739)
(0.00137193 0 0.0126073)
(0.00140845 0 0.012344)
(0.00143378 0 0.0120874)
(0.00144071 0 0.011841)
(0.00142065 0 0.0116113)
(0.00136587 0 0.0114047)
(0.00127848 0 0.0112224)
(0.00116529 0 0.0110591)
(0.00102411 0 0.0109142)
(0.000854421 0 0.0107903)
(0.000661521 0 0.0106873)
(0.000449317 0 0.0106034)
(0.000220953 0 0.0105372)
(-1.97639e-05 0 0.0104877)
(-7.07718e-05 0 0.0104249)
(0.000260706 0 0.0140558)
(0.000574536 0 0.0141046)
(0.000681155 0 0.0140211)
(0.000776876 0 0.0138552)
(0.00084316 0 0.0136357)
(0.000889237 0 0.0133892)
(0.000927386 0 0.013137)
(0.000966024 0 0.0128894)
(0.00100627 0 0.0126496)
(0.00104741 0 0.0124169)
(0.00109008 0 0.0121885)
(0.00113315 0 0.0119622)
(0.00117238 0 0.0117377)
(0.00120233 0 0.0115154)
(0.00121781 0 0.0112965)
(0.00121184 0 0.0110853)
(0.00117629 0 0.0108868)
(0.00110918 0 0.010706)
(0.00101395 0 0.0105423)
(0.000891054 0 0.010395)
(0.000741119 0 0.0102669)
(0.000567607 0 0.0101591)
(0.000373606 0 0.0100714)
(0.00016604 0 0.0100041)
(-5.27648e-05 0 0.00995529)
(-8.23418e-05 0 0.00990254)
(0.000257106 0 0.0131941)
(0.000514653 0 0.0131988)
(0.000538697 0 0.0130759)
(0.000585399 0 0.0128991)
(0.00062427 0 0.0126936)
(0.000661683 0 0.0124768)
(0.000703005 0 0.0122614)
(0.000748789 0 0.0120523)
(0.000796036 0 0.01185)
(0.000842301 0 0.0116535)
(0.000887897 0 0.0114609)
(0.000932605 0 0.0112701)
(0.000972907 0 0.0110805)
(0.00100379 0 0.0108913)
(0.0010216 0 0.0107021)
(0.00102137 0 0.0105142)
(0.000996191 0 0.0103318)
(0.000942643 0 0.0101596)
(0.000862015 0 0.0100002)
(0.000755642 0 0.00985506)
(0.000624484 0 0.00972754)
(0.000471055 0 0.00961958)
(0.000298384 0 0.00953285)
(0.000112592 0 0.0094708)
(-8.10012e-05 0 0.00942685)
(-8.93155e-05 0 0.00938492)
(0.000233178 0 0.0122808)
(0.000422697 0 0.0122476)
(0.000384806 0 0.0121159)
(0.000404516 0 0.0119521)
(0.000431942 0 0.0117754)
(0.000468244 0 0.0115957)
(0.000513815 0 0.011418)
(0.000565237 0 0.0112439)
(0.000617785 0 0.0110736)
(0.000668298 0 0.010907)
(0.000716524 0 0.0107434)
(0.000762502 0 0.0105809)
(0.000803235 0 0.0104184)
(0.000833616 0 0.0102552)
(0.000850404 0 0.0100907)
(0.000851015 0 0.00992443)
(0.000830757 0 0.00975952)
(0.000786153 0 0.00960038)
(0.000717352 0 0.00945103)
(0.000625545 0 0.00931432)
(0.000511759 0 0.00919387)
(0.000377994 0 0.00909262)
(0.000228761 0 0.00901265)
(6.7232e-05 0 0.00895857)
(-0.00010118 0 0.00892531)
(-9.24415e-05 0 0.00889405)
(0.000195885 0 0.0113314)
(0.000321305 0 0.0112784)
(0.000247203 0 0.0111648)
(0.000253746 0 0.011034)
(0.000277167 0 0.0108981)
(0.000313554 0 0.010761)
(0.00036036 0 0.0106231)
(0.000413335 0 0.0104843)
(0.00046793 0 0.0103451)
(0.000520665 0 0.0102066)
(0.000570193 0 0.0100689)
(0.000616008 0 0.00993068)
(0.000655684 0 0.00979043)
(0.000684609 0 0.00964772)
(0.000699396 0 0.00950268)
(0.000698812 0 0.00935521)
(0.000680561 0 0.00920735)
(0.000642174 0 0.00906296)
(0.000583412 0 0.00892631)
(0.000505201 0 0.00880103)
(0.00040859 0 0.00869103)
(0.000294604 0 0.00860009)
(0.0001679 0 0.00853074)
(3.15726e-05 0 0.00848493)
(-0.000111103 0 0.00846187)
(-9.1083e-05 0 0.0084409)
(0.000155475 0 0.0103813)
(0.000231066 0 0.0103274)
(0.000143656 0 0.0102462)
(0.000144787 0 0.0101573)
(0.000166078 0 0.0100662)
(0.000200412 0 0.00997266)
(0.00024432 0 0.00987504)
(0.000294437 0 0.00977253)
(0.000347282 0 0.00966573)
(0.000399278 0 0.00955606)
(0.000447806 0 0.00944421)
(0.000491311 0 0.00932938)
(0.000527678 0 0.00921026)
(0.000553401 0 0.00908652)
(0.000565553 0 0.00895905)
(0.000563418 0 0.00882887)
(0.00054617 0 0.00869782)
(0.000512488 0 0.0085693)
(0.000462306 0 0.00844724)
(0.000396458 0 0.00833543)
(0.000316113 0 0.00823755)
(0.000221949 0 0.00815735)
(0.000116696 0 0.0080985)
(3.86584e-06 0 0.00806117)
(-0.000113719 0 0.00804508)
(-8.62386e-05 0 0.00803118)
(0.000120089 0 0.00947639)
(0.000163487 0 0.00943396)
(7.87384e-05 0 0.00938667)
(7.84342e-05 0 0.0093374)
(9.72927e-05 0 0.00928661)
(0.000127309 0 0.00923209)
(0.000165377 0 0.00917172)
(0.000209418 0 0.00910439)
(0.000257072 0 0.00903012)
(0.000304912 0 0.00894972)
(0.000349437 0 0.00886379)
(0.000388198 0 0.00877204)
(0.00041921 0 0.0086738)
(0.000440008 0 0.00856917)
(0.000448531 0 0.00845951)
(0.000444459 0 0.00834671)
(0.000427827 0 0.0082329)
(0.000398205 0 0.00812126)
(0.000355717 0 0.00801535)
(0.000301046 0 0.00791861)
(0.000235224 0 0.00783433)
(0.000159267 0 0.0077655)
(7.43332e-05 0 0.00771575)
(-1.70633e-05 0 0.00768587)
(-0.000112224 0 0.00767418)
(-7.9896e-05 0 0.00766329)
(9.33902e-05 0 0.0086549)
(0.000120338 0 0.00862782)
(4.70903e-05 0 0.0086079)
(4.72555e-05 0 0.00858888)
(6.34368e-05 0 0.00856874)
(8.8435e-05 0 0.0085449)
(0.000119851 0 0.00851541)
(0.000156437 0 0.00847884)
(0.000196582 0 0.00843429)
(0.00023725 0 0.00838142)
(0.000274751 0 0.00832031)
(0.00030629 0 0.00825096)
(0.000330132 0 0.00817335)
(0.000344739 0 0.00808817)
(0.000348947 0 0.00799716)
(0.000342783 0 0.0079027)
(0.000326674 0 0.00780717)
(0.000300683 0 0.00771349)
(0.000265008 0 0.00762477)
(0.000220229 0 0.0075439)
(0.000167064 0 0.00747369)
(0.000106541 0 0.00741651)
(3.92285e-05 0 0.00737488)
(-3.35296e-05 0 0.00735032)
(-0.000109701 0 0.00734063)
(-7.3877e-05 0 0.00732964)
(7.52847e-05 0 0.00793665)
(9.69788e-05 0 0.0079231)
(3.85677e-05 0 0.00792075)
(4.02107e-05 0 0.00792068)
(5.43753e-05 0 0.00792035)
(7.52657e-05 0 0.00791747)
(0.000100939 0 0.00791031)
(0.000130325 0 0.00789719)
(0.000162113 0 0.00787636)
(0.000193848 0 0.0078465)
(0.000222335 0 0.00780711)
(0.000245048 0 0.0077583)
(0.000260671 0 0.00770055)
(0.00026844 0 0.00763494)
(0.000267934 0 0.00756336)
(0.000259462 0 0.00748815)
(0.000243603 0 0.00741166)
(0.000220613 0 0.00733643)
(0.0001906 0 0.00726508)
(0.000153969 0 0.0072)
(0.000111221 0 0.00714334)
(6.31012e-05 0 0.00709708)
(9.94751e-06 0 0.00706283)
(-4.76184e-05 0 0.00704215)
(-0.000108326 0 0.00703297)
(-6.92912e-05 0 0.0070203)
(6.38698e-05 0 0.00732349)
(8.6574e-05 0 0.00731949)
(4.28475e-05 0 0.00732579)
(4.67766e-05 0 0.00733515)
(6.0229e-05 0 0.00734543)
(7.85761e-05 0 0.00735459)
(0.000100016 0 0.00736092)
(0.000123288 0 0.00736256)
(0.000147141 0 0.00735747)
(0.000169745 0 0.00734393)
(0.000188803 0 0.00732114)
(0.000202479 0 0.00728928)
(0.000209982 0 0.00724908)
(0.000211128 0 0.00720175)
(0.000205996 0 0.00714903)
(0.00019506 0 0.00709291)
(0.000178936 0 0.00703533)
(0.000157965 0 0.00697826)
(0.000132174 0 0.00692379)
(0.000101705 0 0.00687383)
(6.68759e-05 0 0.00683)
(2.81803e-05 0 0.00679385)
(-1.42034e-05 0 0.00676653)
(-6.00854e-05 0 0.00674931)
(-0.000108788 0 0.00674041)
(-6.64738e-05 0 0.00672594)
(5.69379e-05 0 0.0068058)
(8.31331e-05 0 0.00680751)
(5.22891e-05 0 0.00681642)
(5.92767e-05 0 0.006829)
(7.32565e-05 0 0.00684345)
(9.02941e-05 0 0.00685771)
(0.000108645 0 0.00686995)
(0.000126912 0 0.00687839)
(0.000143918 0 0.0068812)
(0.000158427 0 0.0068769)
(0.000169076 0 0.00686479)
(0.000174834 0 0.00684513)
(0.000175412 0 0.00681872)
(0.000170998 0 0.00678672)
(0.000161933 0 0.00675051)
(0.00014873 0 0.00671158)
(0.000131961 0 0.0066713)
(0.000112004 0 0.00663102)
(8.8917e-05 0 0.00659214)
(6.26644e-05 0 0.00655612)
(3.33628e-05 0 0.00652417)
(1.3168e-06 0 0.0064974)
(-3.33868e-05 0 0.0064767)
(-7.08008e-05 0 0.00646299)
(-0.000110686 0 0.00645479)
(-6.51768e-05 0 0.00643925)
(5.27185e-05 0 0.00636867)
(8.27547e-05 0 0.0063734)
(6.25668e-05 0 0.00638194)
(7.30633e-05 0 0.00639435)
(8.81648e-05 0 0.00640885)
(0.000104368 0 0.00642329)
(0.00012014 0 0.00643589)
(0.000134225 0 0.00644517)
(0.000145667 0 0.00644986)
(0.000153746 0 0.00644906)
(0.000157848 0 0.00644245)
(0.000157603 0 0.00643037)
(0.000153093 0 0.00641359)
(0.000144692 0 0.00639305)
(0.00013282 0 0.00636976)
(0.000117927 0 0.00634469)
(0.000100488 0 0.0063187)
(8.08766e-05 0 0.00629253)
(5.9243e-05 0 0.00626698)
(3.55287e-05 0 0.00624298)
(9.71738e-06 0 0.00622138)
(-1.8027e-05 0 0.00620296)
(-4.76935e-05 0 0.00618835)
(-7.94287e-05 0 0.00617818)
(-0.000113235 0 0.00617123)
(-6.48935e-05 0 0.00615565)
(5.0114e-05 0 0.0059959)
(8.35545e-05 0 0.00600227)
(7.17833e-05 0 0.00600953)
(8.5471e-05 0 0.00601999)
(0.000101442 0 0.00603183)
(0.000116641 0 0.00604313)
(0.000129961 0 0.00605245)
(0.000140531 0 0.00605884)
(0.000147726 0 0.00606168)
(0.00015122 0 0.0060607)
(0.000150878 0 0.00605594)
(0.000146738 0 0.00604783)
(0.000139077 0 0.00603702)
(0.000128318 0 0.00602417)
(0.000114851 0 0.00600992)
(9.90167e-05 0 0.00599485)
(8.11677e-05 0 0.00597938)
(6.16417e-05 0 0.00596385)
(4.06724e-05 0 0.00594859)
(1.82747e-05 0 0.00593406)
(-5.59764e-06 0 0.00592078)
(-3.08425e-05 0 0.00590923)
(-5.74974e-05 0 0.00589985)
(-8.57404e-05 0 0.00589306)
(-0.000115634 0 0.00588769)
(-6.50766e-05 0 0.00587308)
(4.86533e-05 0 0.0056722)
(8.49203e-05 0 0.00567982)
(7.91446e-05 0 0.00568557)
(9.47831e-05 0 0.00569289)
(0.000110725 0 0.00570028)
(0.000124486 0 0.00570642)
(0.00013547 0 0.0057105)
(0.000143251 0 0.00571217)
(0.000147519 0 0.0057114)
(0.000148189 0 0.00570834)
(0.000145352 0 0.00570331)
(0.000139207 0 0.00569674)
(0.000130071 0 0.0056891)
(0.000118322 0 0.0056808)
(0.000104285 0 0.00567217)
(8.8204e-05 0 0.00566348)
(7.03153e-05 0 0.0056549)
(5.09023e-05 0 0.0056465)
(3.02482e-05 0 0.00563834)
(8.46404e-06 0 0.00563056)
(-1.44563e-05 0 0.00562338)
(-3.84077e-05 0 0.00561705)
(-6.34257e-05 0 0.00561184)
(-8.96623e-05 0 0.00560804)
(-0.000117204 0 0.00560453)
(-6.5266e-05 0 0.00559161)
(4.82103e-05 0 0.00538406)
(8.66122e-05 0 0.00539277)
(8.40305e-05 0 0.00539661)
(9.98136e-05 0 0.00539993)
(0.000114651 0 0.00540195)
(0.000126644 0 0.00540219)
(0.000135616 0 0.00540055)
(0.000141453 0 0.00539719)
(0.000144041 0 0.00539244)
(0.00014339 0 0.00538669)
(0.000139629 0 0.00538037)
(0.000132948 0 0.00537384)
(0.000123597 0 0.00536742)
(0.000111868 0 0.00536131)
(9.8016e-05 0 0.00535562)
(8.22243e-05 0 0.00535042)
(6.46548e-05 0 0.00534573)
(4.55363e-05 0 0.0053415)
(2.51615e-05 0 0.00533766)
(3.7155e-06 0 0.00533415)
(-1.87418e-05 0 0.00533102)
(-4.20711e-05 0 0.00532832)
(-6.62675e-05 0 0.00532618)
(-9.14176e-05 0 0.00532477)
(-0.000117616 0 0.00532296)
(-6.51394e-05 0 0.00531205)
(4.86014e-05 0 0.00511986)
(8.81296e-05 0 0.00512911)
(8.57783e-05 0 0.00513038)
(0.000100002 0 0.00512934)
(0.000112959 0 0.00512608)
(0.000123174 0 0.00512093)
(0.000130658 0 0.00511433)
(0.000135405 0 0.00510672)
(0.000137352 0 0.00509857)
(0.000136491 0 0.00509035)
(0.00013289 0 0.00508245)
(0.000126651 0 0.00507516)
(0.000117917 0 0.00506868)
(0.000106875 0 0.00506311)
(9.37191e-05 0 0.00505844)
(7.86036e-05 0 0.00505462)
(6.16566e-05 0 0.00505161)
(4.3067e-05 0 0.00504933)
(2.311e-05 0 0.00504765)
(2.00604e-06 0 0.00504643)
(-2.01264e-05 0 0.00504561)
(-4.31085e-05 0 0.00504513)
(-6.68813e-05 0 0.005045)
(-9.14616e-05 0 0.00504529)
(-0.0001169 0 0.00504498)
(-6.46023e-05 0 0.00503605)
(4.93334e-05 0 0.00486972)
(8.86192e-05 0 0.00487837)
(8.40108e-05 0 0.00487662)
(9.56489e-05 0 0.00487162)
(0.000106506 0 0.00486421)
(0.000115242 0 0.00485519)
(0.000121818 0 0.00484519)
(0.000126163 0 0.00483476)
(0.000128162 0 0.00482433)
(0.000127742 0 0.00481431)
(0.000124884 0 0.004805)
(0.000119595 0 0.00479665)
(0.000111914 0 0.00478942)
(0.000101933 0 0.00478335)
(8.97899e-05 0 0.00477843)
(7.56171e-05 0 0.00477459)
(5.95326e-05 0 0.00477178)
(4.16996e-05 0 0.0047699)
(2.23636e-05 0 0.00476883)
(1.74728e-06 0 0.00476843)
(-1.99943e-05 0 0.00476857)
(-4.26516e-05 0 0.00476914)
(-6.61112e-05 0 0.00477007)
(-9.03183e-05 0 0.00477135)
(-0.000115261 0 0.00477211)
(-6.36795e-05 0 0.00476492)
(4.96904e-05 0 0.00462559)
(8.7259e-05 0 0.00463236)
(7.90432e-05 0 0.00462782)
(8.79474e-05 0 0.00462009)
(9.69916e-05 0 0.00461035)
(0.000104688 0 0.00459944)
(0.000110806 0 0.00458794)
(0.000115136 0 0.00457628)
(0.000117483 0 0.00456481)
(0.000117714 0 0.00455381)
(0.000115746 0 0.00454354)
(0.000111522 0 0.00453421)
(0.000105006 0 0.00452597)
(9.62171e-05 0 0.00451891)
(8.5234e-05 0 0.00451305)