/*--------------------------------*- C++ -*----------------------------------*\
  =========                 |
  \\      /  F ield         | OpenFOAM: The Open Source CFD Toolbox
   \\    /   O peration     | Website:  https://openfoam.org
    \\  /    A nd           | Version:  7
     \\/     M anipulation  |
\*---------------------------------------------------------------------------*/
FoamFile
{
    version     2.0;
    format      ascii;
    class       volVectorField;
    location    "0.01";
    object      U.particlesMean;
}
// * * * * * * * * * * * * * * * * * * * * * * * * * * * * * * * * * * * * * //

dimensions      [0 1 -1 0 0 0 0];

internalField   nonuniform List<vector> 
10790
(
(0.00110591 0.471808 0.0233906)
(0.000247099 0.462907 0.0230286)
(0.000439578 0.462849 0.0227559)
(0.00017889 0.461524 0.0226521)
(-8.68431e-05 0.462692 0.0227306)
(-0.000212808 0.462218 0.0231069)
(-0.000121293 0.461373 0.0232629)
(1.31822e-05 0.461091 0.023293)
(4.98393e-05 0.458611 0.0234047)
(2.64142e-05 0.461419 0.0232784)
(9.07305e-06 0.461598 0.0232647)
(4.38162e-07 0.461243 0.0232714)
(-2.27248e-05 0.459197 0.0233348)
(-5.00572e-05 0.46105 0.0232756)
(-6.16919e-05 0.460967 0.0232767)
(-8.34553e-05 0.459603 0.0233031)
(-9.57283e-05 0.460941 0.0232784)
(-9.38329e-05 0.460856 0.0232875)
(-0.000106462 0.4601 0.023318)
(-0.000121952 0.460363 0.0232889)
(-0.000108405 0.460455 0.0231956)
(-8.65405e-05 0.461297 0.0230979)
(-0.000102843 0.461222 0.0230488)
(-6.92507e-05 0.46182 0.0229978)
(0.000240308 0.462266 0.0229246)
(-0.000883152 0.472702 0.0230306)
(-9.32139e-05 0.482504 0.0245918)
(9.99386e-05 0.484535 0.0247625)
(0.000272857 0.483858 0.0244893)
(0.000230311 0.484459 0.0242464)
(0.000288089 0.483787 0.0244376)
(0.000111845 0.482416 0.0245797)
(-1.55039e-05 0.482464 0.0246522)
(3.48602e-05 0.482454 0.0246852)
(3.93302e-05 0.481962 0.0246755)
(1.49712e-06 0.482913 0.0246665)
(-1.30758e-05 0.482496 0.0246494)
(-1.21451e-05 0.481851 0.024645)
(-2.3606e-05 0.481698 0.0246405)
(-4.80085e-05 0.482183 0.0246475)
(-6.86418e-05 0.482085 0.0246437)
(-8.38866e-05 0.482054 0.0246392)
(-8.49812e-05 0.482259 0.024644)
(-9.20815e-05 0.481902 0.0246574)
(-0.000136442 0.481703 0.0246694)
(-0.000200721 0.482427 0.0246929)
(-0.000208567 0.482343 0.0246764)
(-0.000161016 0.482357 0.0246209)
(-0.000178923 0.48349 0.0246113)
(-0.000153473 0.483603 0.024594)
(0.000130005 0.484117 0.0244805)
(0.000149798 0.48376 0.0243792)
(-0.00011141 0.488177 0.025658)
(-9.03841e-05 0.488852 0.0261408)
(-3.44543e-05 0.488423 0.0258303)
(5.88271e-05 0.488784 0.0257553)
(0.000131295 0.489531 0.0256849)
(2.2095e-05 0.487763 0.0254917)
(4.14147e-05 0.487937 0.0255224)
(5.63909e-05 0.488086 0.0255691)
(2.3171e-05 0.488689 0.0255633)
(-4.65139e-06 0.488608 0.0255424)
(-8.59728e-06 0.487932 0.025534)
(-1.14869e-05 0.486605 0.0255428)
(-2.99715e-05 0.487571 0.0255326)
(-5.79852e-05 0.487724 0.0255245)
(-7.79916e-05 0.487391 0.0255402)
(-8.33337e-05 0.488003 0.0255351)
(-7.51423e-05 0.487753 0.0255164)
(-6.83833e-05 0.487598 0.0254982)
(-8.14363e-05 0.487914 0.0254818)
(-0.000127042 0.487786 0.0255115)
(-0.000181347 0.487726 0.0255774)
(-0.000174977 0.487479 0.0255693)
(-0.000150424 0.488276 0.0255905)
(-0.000186832 0.488532 0.0256392)
(-5.8791e-06 0.488799 0.0255456)
(0.000103397 0.489404 0.025354)
(0.000214059 0.488253 0.0247986)
(0.000127312 0.488114 0.0251528)
(-0.000128822 0.487947 0.0252094)
(9.21176e-05 0.487629 0.0252752)
(0.000122367 0.488393 0.0251479)
(-2.05747e-06 0.487306 0.0251291)
(4.67051e-05 0.487293 0.0251521)
(3.94996e-05 0.488526 0.0251488)
(7.44836e-06 0.488333 0.0251199)
(-5.15612e-07 0.487392 0.0251064)
(-1.18408e-06 0.487207 0.025115)
(-1.16391e-05 0.485827 0.0251195)
(-3.74617e-05 0.486872 0.0251065)
(-6.48283e-05 0.486637 0.0250996)
(-7.95978e-05 0.486066 0.0251154)
(-8.42256e-05 0.486917 0.0251291)
(-9.93746e-05 0.485906 0.0251458)
(-0.000126635 0.486545 0.0251336)
(-0.000129795 0.488402 0.025091)
(-0.000117279 0.487106 0.0250507)
(-0.000165196 0.486966 0.0250423)
(-0.000192182 0.487232 0.0250455)
(-0.000160273 0.488731 0.0250666)
(-0.00022502 0.487729 0.0251237)
(-0.000156897 0.488033 0.0250852)
(-9.60667e-06 0.488351 0.0248916)
(0.000247293 0.489165 0.0246144)
(0.00029811 0.487499 0.0244283)
(5.85669e-05 0.487403 0.024628)
(-1.01327e-05 0.488292 0.0247873)
(-6.85067e-06 0.48892 0.0245855)
(5.20056e-05 0.487977 0.0246267)
(4.74246e-05 0.486316 0.0246519)
(1.34013e-05 0.488416 0.0246149)
(2.70492e-06 0.488088 0.0245917)
(8.56779e-06 0.487332 0.0246006)
(2.14939e-06 0.486858 0.024606)
(-2.00021e-05 0.486672 0.0245983)
(-4.86872e-05 0.487068 0.0245829)
(-6.51925e-05 0.486388 0.0245731)
(-6.05972e-05 0.486959 0.0245674)
(-4.79e-05 0.487389 0.0245735)
(-6.61859e-05 0.486997 0.0245923)
(-0.000125627 0.487234 0.0246465)
(-0.000168472 0.487845 0.0246817)
(-0.000153352 0.485861 0.0246773)
(-0.000165585 0.486621 0.0246427)
(-0.000167585 0.485439 0.0246455)
(-9.39557e-05 0.488624 0.0245794)
(-0.000174372 0.488807 0.0246294)
(-0.00024035 0.488097 0.0246634)
(-8.86214e-05 0.48793 0.0245774)
(5.46455e-05 0.488475 0.0244533)
(0.000138303 0.489238 0.0243263)
(0.000184957 0.488113 0.0242717)
(3.59329e-05 0.4886 0.0242676)
(-1.93954e-05 0.488532 0.0243165)
(6.50201e-05 0.486114 0.024344)
(2.49187e-05 0.486962 0.0243007)
(9.68365e-07 0.487032 0.0242797)
(1.18242e-05 0.486957 0.0242883)
(1.65475e-05 0.486605 0.0243009)
(-3.58406e-07 0.484268 0.024318)
(-3.29608e-05 0.486447 0.0242899)
(-6.57949e-05 0.486598 0.0242832)
(-8.30094e-05 0.485832 0.0242888)
(-7.80679e-05 0.486337 0.02428)
(-5.90763e-05 0.486901 0.0242455)
(-4.75271e-05 0.48689 0.0241901)
(-6.03283e-05 0.487689 0.0241714)
(-0.000103598 0.486243 0.0241969)
(-0.000143161 0.48565 0.0242257)
(-0.00018186 0.487649 0.0242179)
(-0.000251497 0.487611 0.0242589)
(-0.000186241 0.4866 0.0241792)
(-0.00015428 0.487967 0.0241478)
(-0.000220231 0.487372 0.0242203)
(-0.000108006 0.486701 0.0241852)
(0.000115251 0.48558 0.0237187)
(0.000149327 0.488325 0.0238112)
(1.60253e-06 0.487925 0.0237688)
(1.54099e-06 0.488735 0.0236165)
(7.44807e-05 0.486819 0.0237406)
(3.70011e-05 0.487217 0.023711)
(-4.69962e-06 0.487389 0.0236746)
(5.05366e-06 0.487254 0.0236811)
(2.16439e-05 0.486941 0.0236947)
(1.51759e-05 0.486245 0.0236916)
(-7.57482e-06 0.485617 0.0236782)
(-3.43163e-05 0.486387 0.0236681)
(-5.80269e-05 0.486064 0.0236727)
(-7.54382e-05 0.485921 0.0236986)
(-9.41917e-05 0.486491 0.0237348)
(-0.000123575 0.485559 0.0237623)
(-0.000146227 0.486844 0.0237419)
(-0.00012971 0.487417 0.0237002)
(-0.000121727 0.487101 0.0236913)
(-0.000122743 0.487288 0.0236863)
(-0.000109234 0.485978 0.023679)
(-0.000212255 0.487754 0.023771)
(-0.000219374 0.486428 0.0237983)
(-0.000157872 0.487249 0.0237354)
(-0.000211329 0.487504 0.0237624)
(-0.000116308 0.486079 0.0237495)
(0.000128692 0.488173 0.0233306)
(0.000188214 0.48759 0.0232664)
(6.13535e-06 0.489203 0.0232226)
(7.82578e-06 0.488027 0.0233288)
(7.06708e-05 0.488574 0.023311)
(-3.15502e-06 0.488341 0.0232519)
(-4.75064e-06 0.487763 0.02326)
(2.24517e-05 0.487178 0.0232906)
(2.42903e-05 0.486477 0.0232979)
(1.94686e-06 0.484996 0.0232859)
(-2.43932e-05 0.486193 0.0232629)
(-4.005e-05 0.486558 0.0232439)
(-4.11169e-05 0.486351 0.0232277)
(-2.7934e-05 0.487307 0.0232136)
(-2.14476e-05 0.487522 0.0232204)
(-5.27486e-05 0.487258 0.0232516)
(-0.000101134 0.486366 0.0232994)
(-0.000111088 0.486685 0.0233134)
(-0.000123829 0.486965 0.0233033)
(-0.000162417 0.484857 0.0233301)
(-0.000105376 0.486493 0.0232772)
(-0.000147644 0.487414 0.0233118)
(-0.000213874 0.486101 0.0233609)
(-0.000181257 0.486357 0.0233091)
(-0.000218006 0.486579 0.0233108)
(-0.000121557 0.486421 0.0233157)
(6.12475e-05 0.486818 0.0230964)
(4.6261e-05 0.48914 0.0230135)
(4.0989e-05 0.486827 0.0228838)
(7.96299e-05 0.488136 0.0230726)
(2.06375e-06 0.488845 0.0229874)
(-1.09924e-05 0.488279 0.0229757)
(2.69101e-05 0.487038 0.0230199)
(3.71648e-05 0.485716 0.0230408)
(1.24645e-05 0.486071 0.0230191)
(-1.98464e-05 0.484733 0.0230264)
(-4.5983e-05 0.485044 0.0230269)
(-6.78948e-05 0.486072 0.023025)
(-8.07295e-05 0.485973 0.023021)
(-7.32514e-05 0.486381 0.0229795)
(-5.53865e-05 0.486954 0.0229161)
(-6.157e-05 0.486792 0.0228693)
(-0.000100697 0.485327 0.0228873)
(-0.00012343 0.486302 0.0229093)
(-9.34097e-05 0.485269 0.0228826)
(-0.000132787 0.486426 0.0229037)
(-0.000125213 0.485748 0.0229034)
(-0.000148154 0.486409 0.0228758)
(-0.000226691 0.487783 0.0228961)
(-0.000204704 0.486636 0.0228625)
(-0.000215694 0.486884 0.0228677)
(-0.000116084 0.486436 0.0228887)
(8.77168e-05 0.488281 0.0224008)
(5.45048e-05 0.48914 0.0223804)
(3.81155e-05 0.487972 0.0224842)
(5.26178e-05 0.488259 0.0224172)
(-2.73815e-05 0.48762 0.022364)
(2.1037e-05 0.486989 0.0224192)
(5.05913e-05 0.486952 0.02245)
(2.87984e-05 0.48737 0.0224294)
(6.464e-07 0.486445 0.0224027)
(-1.3048e-05 0.487072 0.0223965)
(-2.27597e-05 0.487229 0.0224111)
(-4.32456e-05 0.486624 0.0224422)
(-7.13805e-05 0.485065 0.02249)
(-9.34567e-05 0.485734 0.0225065)
(-9.79881e-05 0.484998 0.0225085)
(-7.56224e-05 0.486522 0.0224579)
(-5.51715e-05 0.487474 0.0224261)
(-9.98402e-05 0.487656 0.0224673)
(-0.00012098 0.4876 0.0224787)
(-0.00015336 0.488629 0.0224547)
(-0.000151312 0.487323 0.0224541)
(-0.000155599 0.486888 0.0224272)
(-0.000218488 0.487781 0.0224589)
(-0.000206299 0.48589 0.0224597)
(-0.000204263 0.485717 0.0224707)
(-0.000107194 0.486111 0.0224772)
(4.57341e-05 0.489054 0.0220372)
(0.000121551 0.487162 0.0220002)
(7.94013e-05 0.488936 0.022115)
(-2.41518e-05 0.488825 0.0220031)
(8.17724e-06 0.488241 0.0220493)
(5.4777e-05 0.487842 0.0220937)
(3.18376e-05 0.488462 0.0220794)
(-9.69217e-06 0.488229 0.0220446)
(-2.25729e-05 0.486568 0.0220193)
(-9.20532e-06 0.488263 0.0220104)
(-1.92613e-06 0.488442 0.0220057)
(-2.91428e-06 0.488293 0.0220001)
(-1.71738e-05 0.488023 0.0220037)
(-5.50627e-05 0.487746 0.0220289)
(-0.000108154 0.486222 0.0220592)
(-0.000132167 0.487795 0.0220512)
(-8.68642e-05 0.488155 0.022008)
(-7.29418e-05 0.487581 0.0219897)
(-0.000107125 0.487153 0.022041)
(-0.000158507 0.487972 0.0220368)
(-0.000155969 0.486598 0.0220513)
(-0.000146113 0.486449 0.0220343)
(-0.000193692 0.485596 0.0220568)
(-0.000203354 0.486495 0.0220454)
(-0.000204304 0.48711 0.0220698)
(-0.00010447 0.486312 0.0220698)
(2.04529e-05 0.488475 0.0216405)
(0.000101752 0.489897 0.0217435)
(4.59513e-05 0.489007 0.0216334)
(-1.2029e-05 0.487795 0.0216419)
(6.95988e-05 0.487116 0.021717)
(5.52813e-05 0.487998 0.0217093)
(8.11392e-07 0.487914 0.0216762)
(-3.36693e-05 0.487001 0.0216626)
(-3.76359e-05 0.486287 0.0216415)
(-2.93547e-05 0.487445 0.0216721)
(-3.15382e-05 0.487442 0.0216605)
(-4.08876e-05 0.486542 0.0216043)
(-4.43558e-05 0.487391 0.0215948)
(-4.79138e-05 0.487561 0.0215788)
(-7.90831e-05 0.487537 0.0215915)
(-0.000122432 0.48592 0.0216405)
(-0.000119299 0.486653 0.021635)
(-7.22154e-05 0.485911 0.0216059)
(-7.43793e-05 0.48711 0.0216322)
(-0.000142817 0.48567 0.0216771)
(-0.000161773 0.486959 0.021704)
(-0.000150423 0.487671 0.0216717)
(-0.000183024 0.487197 0.0216691)
(-0.000203383 0.4877 0.0216693)
(-0.000207803 0.487566 0.0216678)
(-0.000103732 0.485947 0.0216673)
(0.00010637 0.489476 0.021249)
(9.14355e-05 0.48929 0.0213268)
(-2.91655e-06 0.487976 0.0212231)
(6.7765e-05 0.487901 0.0213122)
(7.47166e-05 0.48821 0.0213119)
(1.63064e-05 0.488127 0.0212614)
(-1.65098e-05 0.487622 0.0212434)
(-1.31949e-05 0.48744 0.021261)
(-3.35761e-06 0.488336 0.0212788)
(-9.00151e-06 0.488489 0.0213094)
(-3.52628e-05 0.488116 0.0213335)
(-7.41884e-05 0.48638 0.0213605)
(-8.33437e-05 0.487687 0.0213083)
(-6.18813e-05 0.486678 0.0212947)
(-4.96874e-05 0.487858 0.0212627)
(-6.79639e-05 0.487258 0.0212961)
(-0.000110416 0.48774 0.0213424)
(-9.38672e-05 0.486664 0.0213354)
(-7.44403e-05 0.487989 0.0212866)
(-0.000139486 0.486911 0.0212924)
(-0.000174316 0.487143 0.0213059)
(-0.000168645 0.487483 0.0212712)
(-0.000186386 0.486627 0.021256)
(-0.000199187 0.486271 0.0212678)
(-0.000200709 0.486575 0.0212658)
(-0.000100087 0.486124 0.0212701)
(0.000125729 0.487699 0.0209993)
(0.000103307 0.487418 0.0209091)
(3.78184e-05 0.487939 0.0209545)
(8.75685e-05 0.487763 0.0209922)
(7.31937e-06 0.486586 0.0209434)
(-4.02956e-05 0.48572 0.0209117)
(-2.75031e-05 0.486824 0.0208901)
(2.53466e-06 0.4874 0.0208921)
(2.88734e-05 0.487782 0.020892)
(2.70924e-05 0.487873 0.0208963)
(-1.38512e-05 0.487434 0.0209134)
(-6.57151e-05 0.486701 0.0209372)
(-8.92906e-05 0.48749 0.0209256)
(-7.72768e-05 0.487366 0.0209165)
(-4.94697e-05 0.485985 0.0209109)
(-3.54066e-05 0.484352 0.0209319)
(-9.77387e-05 0.487368 0.02091)
(-0.000120472 0.487356 0.0209118)
(-9.58344e-05 0.485394 0.0208876)
(-0.000138062 0.485836 0.0208617)
(-0.000172716 0.486159 0.0208768)
(-0.000175193 0.486736 0.020857)
(-0.000184089 0.486653 0.0208538)
(-0.000191029 0.485598 0.0208763)
(-0.000196177 0.486629 0.0208655)
(-9.92679e-05 0.486851 0.0208597)
(4.47835e-05 0.487124 0.0205345)
(9.82877e-05 0.4895 0.020452)
(0.000101357 0.489224 0.0205593)
(3.10426e-05 0.487713 0.0205077)
(-4.97749e-05 0.488123 0.0204456)
(-5.63982e-05 0.486886 0.020425)
(-3.06944e-05 0.487731 0.0204768)
(-3.72173e-06 0.487727 0.0204807)
(1.65851e-05 0.487598 0.0204424)
(1.59202e-05 0.487831 0.020405)
(-1.18709e-05 0.487816 0.0203887)
(-5.38485e-05 0.485732 0.0204045)
(-8.61673e-05 0.487451 0.0204245)
(-9.49921e-05 0.48786 0.0204409)
(-7.08388e-05 0.487328 0.0204255)
(-3.99311e-05 0.486712 0.0204042)
(-9.07079e-05 0.487615 0.0204156)
(-0.000138038 0.488052 0.0204416)
(-0.000125676 0.486862 0.0204276)
(-0.000139502 0.486234 0.0204177)
(-0.000161339 0.487021 0.0204249)
(-0.000171987 0.486612 0.0204337)
(-0.000179735 0.48596 0.0204311)
(-0.000188755 0.486235 0.0204352)
(-0.000198949 0.485761 0.0204427)
(-0.000102376 0.485821 0.0204429)
(3.26783e-05 0.488987 0.0199249)
(0.00010942 0.489236 0.0199773)
(7.48265e-05 0.487689 0.0199532)
(-2.76366e-05 0.488688 0.0198639)
(-3.24944e-05 0.488671 0.0198709)
(-1.25904e-05 0.488379 0.0199172)
(-9.70419e-06 0.487913 0.0199561)
(-1.39549e-05 0.487308 0.0199734)
(-2.19064e-05 0.487222 0.0199606)
(-2.71662e-05 0.487949 0.0199245)
(-2.83893e-05 0.488288 0.0198943)
(-3.4981e-05 0.487938 0.0198946)
(-5.61615e-05 0.487445 0.0199319)
(-8.41869e-05 0.488131 0.0199694)
(-7.82427e-05 0.487866 0.0199807)
(-4.32293e-05 0.486872 0.019978)
(-7.46631e-05 0.487126 0.0199721)
(-0.000125834 0.487199 0.0199902)
(-0.000127468 0.485747 0.0199902)
(-0.000140855 0.484215 0.019944)
(-0.000163719 0.485552 0.019997)
(-0.000174197 0.485504 0.0200071)
(-0.000183652 0.485718 0.0200025)
(-0.000196174 0.486833 0.0199999)
(-0.000208335 0.487295 0.0199997)
(-0.000107006 0.486966 0.0200061)
(8.83999e-05 0.488217 0.0194673)
(0.000105673 0.487439 0.0195266)
(-2.16003e-05 0.488607 0.01942)
(-4.59191e-05 0.488982 0.0194088)
(9.21111e-06 0.488976 0.0194519)
(2.99463e-05 0.488734 0.0194814)
(1.6291e-05 0.488113 0.0195009)
(-7.5298e-06 0.486878 0.0195139)
(-2.83038e-05 0.4878 0.0194981)
(-4.00161e-05 0.487069 0.0194863)
(-3.48815e-05 0.486033 0.0194754)
(-1.6274e-05 0.48713 0.019473)
(-1.39339e-05 0.486395 0.0195007)
(-4.81463e-05 0.48618 0.0195396)
(-6.92928e-05 0.485179 0.0195534)
(-5.26775e-05 0.485955 0.01954)
(-7.29231e-05 0.486691 0.0195371)
(-0.00011778 0.486695 0.0195608)
(-0.000130938 0.487361 0.0195608)
(-0.000150583 0.487883 0.0195518)
(-0.000174817 0.488011 0.0195534)
(-0.000183875 0.488091 0.019557)
(-0.00019209 0.488277 0.0195616)
(-0.000202577 0.488496 0.0195687)
(-0.000211996 0.488673 0.0195759)
(-0.000107636 0.487663 0.0196004)
(8.79427e-05 0.488404 0.0192129)
(4.91478e-05 0.490109 0.0191615)
(-6.35621e-05 0.490453 0.0191109)
(-1.40607e-05 0.490417 0.0191648)
(2.72351e-05 0.490309 0.0191946)
(2.29315e-05 0.489995 0.0191818)
(5.33249e-06 0.489182 0.0191671)
(-4.44527e-06 0.489048 0.0191537)
(-1.12545e-05 0.489776 0.0191461)
(-2.53989e-05 0.489699 0.0191627)
(-3.25577e-05 0.489034 0.0191761)
(-1.19818e-05 0.487753 0.0191817)
(5.11819e-06 0.487417 0.0191709)
(-2.29438e-05 0.48701 0.0191856)
(-6.69838e-05 0.487622 0.0191926)
(-7.71043e-05 0.488556 0.0191647)
(-9.23884e-05 0.488874 0.0191355)
(-0.000127438 0.488838 0.0191342)
(-0.000145659 0.489217 0.0191313)
(-0.000157641 0.489343 0.0191242)
(-0.00017133 0.489049 0.0191369)
(-0.000181246 0.48905 0.0191464)
(-0.000189105 0.489025 0.0191556)
(-0.000197272 0.488968 0.0191656)
(-0.000204233 0.488873 0.0191752)
(-0.000103601 0.487862 0.0191856)
(2.77241e-05 0.490307 0.0188046)
(9.75509e-06 0.489454 0.0187265)
(2.6407e-06 0.489328 0.0187918)
(4.62069e-05 0.48921 0.0188569)
(2.4791e-05 0.489021 0.018849)
(-1.13281e-05 0.488702 0.0188159)
(-2.63356e-05 0.487772 0.0188067)
(-1.63841e-05 0.488305 0.018776)
(-4.70577e-06 0.488879 0.0187701)
(-1.3409e-05 0.489046 0.0187902)
(-3.26985e-05 0.488951 0.0188108)
(-2.86204e-05 0.488549 0.0188126)
(-1.15229e-05 0.488454 0.0188097)
(-3.11111e-05 0.487597 0.0188087)
(-7.16474e-05 0.485987 0.0188316)
(-8.92743e-05 0.488497 0.0187689)
(-0.000104035 0.488897 0.0187415)
(-0.000128035 0.48901 0.018736)
(-0.000144235 0.488838 0.0187262)
(-0.000152371 0.48871 0.0187328)
(-0.000159808 0.488392 0.0187468)
(-0.000167187 0.488399 0.0187564)
(-0.000174451 0.488383 0.0187671)
(-0.000183607 0.488188 0.0187811)
(-0.000192109 0.488073 0.0187903)
(-9.75241e-05 0.487108 0.0188037)
(1.11182e-05 0.489167 0.0183122)
(4.69019e-05 0.488441 0.0183171)
(8.86267e-05 0.48822 0.0184126)
(7.38492e-05 0.487883 0.0184306)
(8.88453e-06 0.48763 0.0184042)
(-3.47496e-05 0.487406 0.0183882)
(-3.94961e-05 0.486125 0.0184146)
(-1.53717e-05 0.48763 0.0183911)
(3.71031e-06 0.488189 0.0183889)
(-2.97805e-06 0.488314 0.0184047)
(-3.24477e-05 0.488152 0.0184218)
(-4.84223e-05 0.487771 0.0184248)
(-4.06155e-05 0.487956 0.0184143)
(-5.23577e-05 0.48754 0.0184007)
(-8.00274e-05 0.487068 0.0184117)
(-9.26052e-05 0.48628 0.0184196)
(-0.000103716 0.487233 0.0183862)
(-0.000117618 0.487782 0.0183753)
(-0.000129747 0.487598 0.0183718)
(-0.000138326 0.487779 0.0183781)
(-0.000145594 0.487823 0.0183879)
(-0.00015285 0.487736 0.0183997)
(-0.000161122 0.487404 0.0184138)
(-0.000170614 0.486581 0.0184338)
(-0.000182431 0.487458 0.0184248)
(-9.39142e-05 0.486747 0.0184493)
(5.95073e-05 0.488449 0.0179564)
(0.000121718 0.488514 0.0180327)
(0.000106563 0.488476 0.0180399)
(4.84601e-05 0.488839 0.0179826)
(-3.06442e-06 0.488717 0.0179594)
(-2.30902e-05 0.488305 0.0179828)
(-1.3941e-05 0.487508 0.018036)
(7.80184e-06 0.487395 0.0180664)
(1.90697e-05 0.488073 0.018064)
(9.32274e-06 0.488449 0.0180607)
(-2.85733e-05 0.488478 0.0180646)
(-6.00544e-05 0.488254 0.0180664)
(-6.00478e-05 0.488011 0.0180508)
(-6.35234e-05 0.487755 0.0180434)
(-8.39346e-05 0.487549 0.0180492)
(-9.42125e-05 0.487253 0.0180568)
(-9.76649e-05 0.486245 0.0180771)
(-0.000107257 0.487153 0.018054)
(-0.000117515 0.487193 0.0180604)
(-0.000126684 0.487408 0.0180607)
(-0.000135667 0.48752 0.0180633)
(-0.000144861 0.487352 0.0180706)
(-0.000155394 0.487344 0.0180723)
(-0.000166431 0.487943 0.0180594)
(-0.000179544 0.488435 0.0180459)
(-9.35095e-05 0.488414 0.0180454)
(0.000110169 0.487583 0.0177552)
(0.000155948 0.488905 0.017754)
(6.04928e-05 0.489267 0.0176899)
(1.60604e-05 0.489126 0.017641)
(1.32932e-05 0.488778 0.0176417)
(2.89484e-05 0.488126 0.0176818)
(3.24303e-05 0.485934 0.0177118)
(2.19316e-05 0.485913 0.0177703)
(1.21786e-05 0.48692 0.0177556)
(-4.47095e-06 0.487195 0.0177463)
(-4.05089e-05 0.486076 0.0177534)
(-7.60023e-05 0.486383 0.0177595)
(-7.56786e-05 0.486419 0.0177572)
(-7.01316e-05 0.486949 0.0177361)
(-8.47582e-05 0.486795 0.0177392)
(-9.49153e-05 0.486333 0.0177527)
(-9.8913e-05 0.484938 0.0177806)
(-0.000107768 0.486743 0.0177381)
(-0.000117681 0.487449 0.0177177)
(-0.000127338 0.487845 0.0177042)
(-0.000137567 0.488138 0.0176921)
(-0.000148129 0.488378 0.017681)
(-0.000158682 0.48858 0.0176713)
(-0.00016959 0.488733 0.0176639)
(-0.000181677 0.48887 0.0176576)
(-9.3798e-05 0.48843 0.0176674)
(0.000107199 0.488651 0.0174461)
(0.000121954 0.48906 0.0173829)
(1.80004e-05 0.489029 0.0173498)
(1.08727e-05 0.48861 0.0173553)
(4.39596e-05 0.488504 0.0173812)
(7.57177e-05 0.488253 0.0174169)
(6.06134e-05 0.487698 0.0174476)
(1.55719e-05 0.486475 0.0174637)
(-1.66369e-05 0.487711 0.0174279)
(-3.64383e-05 0.487879 0.0173916)
(-5.88663e-05 0.487762 0.0173646)
(-8.26636e-05 0.487907 0.017351)
(-9.01014e-05 0.486726 0.0173265)
(-9.01633e-05 0.488038 0.0173405)
(-9.65931e-05 0.488142 0.0173361)
(-0.000105065 0.488079 0.0173351)
(-0.000112032 0.487905 0.0173312)
(-0.000119799 0.487456 0.0173301)
(-0.000127968 0.486855 0.0173305)
(-0.000137213 0.487648 0.0173168)
(-0.000146634 0.487592 0.0173131)
(-0.000155505 0.486585 0.0173163)
(-0.000165943 0.487527 0.0172913)
(-0.000175572 0.487802 0.0172816)
(-0.000185374 0.487949 0.0172763)
(-9.49727e-05 0.487488 0.0172861)
(6.10747e-05 0.487471 0.0169572)
(7.68492e-05 0.488257 0.0168959)
(2.42221e-05 0.487369 0.0169202)
(3.48429e-05 0.487716 0.0169805)
(6.54635e-05 0.487871 0.017015)
(8.30123e-05 0.487746 0.0170254)
(5.7057e-05 0.487267 0.0170167)
(9.88383e-07 0.485066 0.0170222)
(-4.37757e-05 0.486656 0.0169738)
(-6.41852e-05 0.48681 0.0169396)
(-7.60286e-05 0.486904 0.0169201)
(-8.75329e-05 0.487485 0.0169138)
(-9.92464e-05 0.487929 0.0169209)
(-0.000105985 0.488032 0.0169196)
(-0.000108614 0.488079 0.0169171)
(-0.000116488 0.488076 0.0169153)
(-0.000125053 0.488036 0.0169114)
(-0.000133673 0.487911 0.0169074)
(-0.000141529 0.487459 0.0169068)
(-0.00015001 0.487771 0.0168966)
(-0.000158582 0.487638 0.0168922)
(-0.000167585 0.487187 0.0168841)
(-0.000176486 0.487091 0.016883)
(-0.000184329 0.48701 0.0168828)
(-0.000192342 0.48702 0.0168823)
(-9.82228e-05 0.486603 0.0168924)
(4.70242e-05 0.488662 0.0163909)
(9.73078e-05 0.489114 0.0163999)
(8.91346e-05 0.489064 0.0164715)
(7.7264e-05 0.489204 0.0165189)
(7.75638e-05 0.489273 0.0165389)
(6.80937e-05 0.489203 0.0165294)
(3.2365e-05 0.488921 0.0165056)
(-1.95338e-05 0.488006 0.0164967)
(-6.12362e-05 0.48795 0.016481)
(-7.8894e-05 0.488584 0.0164565)
(-8.55162e-05 0.48871 0.0164496)
(-9.20415e-05 0.488705 0.016451)
(-9.84084e-05 0.488703 0.0164549)
(-0.0001037 0.4887 0.0164648)
(-0.000111073 0.488691 0.0164697)
(-0.000121885 0.488679 0.0164721)
(-0.000132721 0.488644 0.0164721)
(-0.000142725 0.488601 0.0164708)
(-0.00015188 0.488603 0.0164679)
(-0.000160564 0.488519 0.0164666)
(-0.000169391 0.488484 0.0164637)
(-0.000178396 0.488522 0.0164621)
(-0.000187161 0.488586 0.0164601)
(-0.000194947 0.488671 0.0164577)
(-0.000202973 0.488777 0.0164538)
(-0.000103671 0.48837 0.0164633)
(7.61236e-05 0.489607 0.015914)
(0.000153507 0.489969 0.0159841)
(0.000132413 0.48973 0.0160211)
(9.47894e-05 0.489764 0.0160349)
(6.66948e-05 0.48978 0.0160266)
(3.7463e-05 0.489727 0.0159996)
(1.55988e-06 0.489567 0.0159699)
(-3.57518e-05 0.489218 0.015959)
(-6.1839e-05 0.488259 0.015983)
(-6.83008e-05 0.488651 0.0159789)
(-7.01226e-05 0.489258 0.0159784)
(-7.61097e-05 0.489506 0.0159855)
(-8.30172e-05 0.489634 0.0159982)
(-9.27511e-05 0.489705 0.01601)
(-0.000105751 0.48974 0.0160171)
(-0.000120342 0.489754 0.0160198)
(-0.000133617 0.489754 0.0160215)
(-0.0001451 0.489749 0.0160224)
(-0.000155415 0.489737 0.0160233)
(-0.00016558 0.489732 0.0160232)
(-0.00017564 0.489738 0.0160214)
(-0.000185299 0.489743 0.0160182)
(-0.000194574 0.489756 0.0160146)
(-0.000203996 0.489776 0.0160095)
(-0.000213366 0.489792 0.0160022)
(-0.000109075 0.489318 0.0160115)
(0.000111991 0.489141 0.0155807)
(0.000183334 0.489343 0.0156426)
(0.000118839 0.489075 0.0156217)
(7.1802e-05 0.489413 0.0155901)
(3.15028e-05 0.489627 0.0155534)
(-9.73392e-07 0.489727 0.0155159)
(-2.43305e-05 0.489739 0.0154918)
(-4.05823e-05 0.48965 0.015487)
(-4.80981e-05 0.489407 0.0155051)
(-4.56492e-05 0.488904 0.0155386)
(-4.27417e-05 0.4876 0.0156003)
(-4.75284e-05 0.48882 0.0155694)
(-5.82296e-05 0.489264 0.0155661)
(-7.41229e-05 0.489489 0.015567)
(-9.4009e-05 0.489626 0.0155686)
(-0.000112903 0.489713 0.0155651)
(-0.000127733 0.48977 0.0155642)
(-0.000140352 0.48981 0.0155642)
(-0.000151767 0.48984 0.0155648)
(-0.000164222 0.489863 0.0155659)
(-0.000176581 0.489887 0.0155638)
(-0.000187306 0.489909 0.0155615)
(-0.000197788 0.489931 0.0155586)
(-0.000209284 0.48995 0.0155532)
(-0.000219998 0.489953 0.0155486)
(-0.000112753 0.48946 0.0155574)
(0.00011406 0.489107 0.0152531)
(0.000148559 0.48949 0.0152217)
(5.47373e-05 0.489088 0.015179)
(2.82606e-05 0.487852 0.0151877)
(-2.25022e-06 0.488735 0.0151357)
(-2.89537e-05 0.489172 0.015097)
(-3.54536e-05 0.489302 0.0150839)
(-3.34468e-05 0.489363 0.0150892)
(-2.87625e-05 0.489381 0.0151036)
(-2.43623e-05 0.489346 0.0151201)
(-2.17695e-05 0.489105 0.0151435)
(-2.63835e-05 0.489352 0.0151318)
(-4.19084e-05 0.488911 0.015148)
(-6.20622e-05 0.48692 0.0152299)
(-8.28646e-05 0.488267 0.0151589)
(-0.000101815 0.488972 0.0151289)
(-0.000118253 0.48927 0.0151164)
(-0.000131733 0.48945 0.0151097)
(-0.000143187 0.489378 0.0151144)
(-0.000158086 0.489242 0.0151252)
(-0.000173251 0.489347 0.0151199)
(-0.000184276 0.489401 0.0151191)
(-0.000195635 0.489417 0.0151198)
(-0.000206981 0.489422 0.0151198)
(-0.000217242 0.489405 0.0151196)
(-0.000111352 0.488876 0.0151328)
(8.70273e-05 0.488787 0.0147763)
(8.80999e-05 0.489015 0.0146518)
(-3.00459e-06 0.488618 0.0146223)
(-6.44131e-06 0.488075 0.0146258)
(-1.51515e-05 0.485944 0.0147051)
(-2.61596e-05 0.487962 0.0146208)
(-2.67593e-05 0.488172 0.0146242)
(-1.8086e-05 0.488296 0.0146348)
(-1.09212e-05 0.488386 0.0146498)
(-9.2716e-06 0.488497 0.0146601)
(-1.34709e-05 0.488427 0.0146727)
(-2.54138e-05 0.488891 0.0146511)
(-4.52347e-05 0.48881 0.014652)
(-6.54855e-05 0.488688 0.0146537)
(-8.20502e-05 0.48852 0.0146593)
(-9.70225e-05 0.488291 0.0146622)
(-0.00011209 0.487942 0.0146735)
(-0.000125385 0.48706 0.014708)
(-0.000137037 0.487193 0.0146977)
(-0.000147324 0.486463 0.0147208)
(-0.000157992 0.487242 0.014698)
(-0.000169832 0.487589 0.0146907)
(-0.000183566 0.487756 0.0146896)
(-0.000196739 0.488229 0.0146784)
(-0.00020896 0.488364 0.0146798)
(-0.000107996 0.487894 0.0147065)
(5.06612e-05 0.48851 0.0142132)
(4.06142e-05 0.48882 0.0140734)
(-1.48878e-05 0.488501 0.0140961)
(-1.00339e-05 0.488172 0.0141238)
(-4.58313e-06 0.487392 0.0141799)
(-5.53335e-06 0.487775 0.0141802)
(-9.24321e-06 0.488337 0.0141709)
(-4.11477e-06 0.488575 0.0141777)
(-2.21691e-06 0.488695 0.0141845)
(-6.7805e-06 0.488777 0.0141864)
(-1.65379e-05 0.4888 0.0141842)
(-3.18263e-05 0.488781 0.01418)
(-5.07262e-05 0.488731 0.0141758)
(-6.82294e-05 0.488657 0.0141734)
(-8.26606e-05 0.488569 0.0141738)
(-9.48357e-05 0.488477 0.0141765)
(-0.000105886 0.488385 0.0141834)
(-0.000116624 0.488301 0.0141933)
(-0.000127118 0.488234 0.0142055)
(-0.000132716 0.488184 0.0142213)
(-0.000138548 0.488006 0.0142355)
(-0.000150508 0.487748 0.0142562)
(-0.000164717 0.487432 0.0142791)
(-0.000180223 0.48701 0.0143065)
(-0.000197945 0.487611 0.0142901)
(-0.000103354 0.487283 0.0143207)
(1.90576e-05 0.489495 0.0136448)
(2.01956e-05 0.489823 0.0136053)
(6.16427e-06 0.489467 0.0136538)
(1.54965e-05 0.489194 0.0136982)
(1.8496e-05 0.488644 0.0137497)
(1.59231e-05 0.487854 0.0138056)
(1.0673e-05 0.489005 0.013771)
(9.33087e-06 0.489402 0.0137666)
(4.09624e-06 0.489615 0.013763)
(-6.54206e-06 0.489732 0.0137579)
(-2.11379e-05 0.489787 0.0137509)
(-3.74088e-05 0.489797 0.0137423)
(-5.35113e-05 0.48978 0.0137372)
(-6.73546e-05 0.489745 0.0137366)
(-7.82548e-05 0.489701 0.0137404)
(-8.70143e-05 0.489655 0.0137478)
(-9.47222e-05 0.489617 0.0137585)
(-0.000102221 0.489594 0.0137716)
(-0.000109864 0.489604 0.0137861)
(-0.000117304 0.489646 0.0138011)
(-0.000126383 0.489575 0.0138169)
(-0.000138706 0.489461 0.0138337)
(-0.000152792 0.489381 0.0138484)
(-0.000169416 0.489316 0.013862)
(-0.000188027 0.489252 0.0138723)
(-9.83255e-05 0.488755 0.0139046)
(2.19232e-05 0.489692 0.0132601)
(4.14412e-05 0.489821 0.0132765)
(4.25168e-05 0.489346 0.0133368)
(4.36307e-05 0.489021 0.013374)
(3.78996e-05 0.488478 0.0134099)
(3.10742e-05 0.48694 0.0134765)
(2.26314e-05 0.488645 0.0134185)
(1.53767e-05 0.489114 0.0134045)
(4.52426e-06 0.489388 0.0133932)
(-9.52013e-06 0.489574 0.0133828)
(-2.52494e-05 0.489706 0.0133739)
(-4.04361e-05 0.489801 0.0133677)
(-5.3533e-05 0.489868 0.0133654)
(-6.35928e-05 0.489913 0.0133677)
(-7.09484e-05 0.48994 0.0133738)
(-7.66503e-05 0.489953 0.013383)
(-8.18782e-05 0.489955 0.0133944)
(-8.75996e-05 0.489946 0.0134075)
(-9.43408e-05 0.489931 0.0134212)
(-0.000102625 0.489909 0.0134349)
(-0.000113073 0.489882 0.0134465)
(-0.000126236 0.489852 0.0134567)
(-0.000141362 0.489819 0.0134658)
(-0.00015864 0.489784 0.0134732)
(-0.000178778 0.489741 0.0134805)
(-9.42955e-05 0.489279 0.013506)
(4.93105e-05 0.489392 0.0130205)
(8.86319e-05 0.489502 0.0130674)
(7.13652e-05 0.488975 0.013111)
(5.51895e-05 0.48864 0.0131268)
(4.0134e-05 0.488116 0.0131392)
(3.07011e-05 0.48582 0.0131933)
(2.215e-05 0.488254 0.0131209)
(1.08969e-05 0.488748 0.0130989)
(-2.23353e-06 0.489041 0.0130812)
(-1.63508e-05 0.489246 0.0130677)
(-3.0463e-05 0.489399 0.0130581)
(-4.275e-05 0.489515 0.0130522)
(-5.22584e-05 0.489605 0.0130506)
(-5.89339e-05 0.489675 0.0130528)
(-6.36132e-05 0.489727 0.0130579)
(-6.74862e-05 0.489766 0.0130649)
(-7.16279e-05 0.489793 0.0130728)
(-7.69326e-05 0.489811 0.0130809)
(-8.39474e-05 0.489821 0.0130885)
(-9.31524e-05 0.489824 0.013095)
(-0.000104848 0.489821 0.0131001)
(-0.000119063 0.489813 0.0131038)
(-0.000135332 0.489802 0.0131069)
(-0.000153236 0.489787 0.0131088)
(-0.00017439 0.489759 0.0131108)
(-9.25816e-05 0.489315 0.0131287)
(8.00841e-05 0.488953 0.0128322)
(0.000125353 0.48904 0.0128747)
(7.54084e-05 0.488436 0.0128872)
(4.66861e-05 0.488074 0.0128789)
(2.56931e-05 0.487536 0.0128719)
(1.67828e-05 0.485392 0.0128915)
(1.0478e-05 0.487769 0.0128348)
(-2.27723e-06 0.488261 0.0128122)
(-1.42685e-05 0.488566 0.0127943)
(-2.52662e-05 0.488788 0.0127796)
(-3.65642e-05 0.488962 0.0127685)
(-4.59831e-05 0.489101 0.0127614)
(-5.25232e-05 0.489215 0.0127579)
(-5.6845e-05 0.489309 0.0127571)
(-6.00401e-05 0.489387 0.012758)
(-6.32928e-05 0.48945 0.0127596)
(-6.7581e-05 0.489501 0.012761)
(-7.36158e-05 0.489542 0.0127617)