/*--------------------------------*- C++ -*----------------------------------*\
  =========                 |
  \\      /  F ield         | OpenFOAM: The Open Source CFD Toolbox
   \\    /   O peration     | Website:  https://openfoam.org
    \\  /    A nd           | Version:  7
     \\/     M anipulation  |
\*---------------------------------------------------------------------------*/
FoamFile
{
    version     2.0;
    format      ascii;
    class       volVectorField;
    location    "0.01";
    object      U.particles;
}
// * * * * * * * * * * * * * * * * * * * * * * * * * * * * * * * * * * * * * //

dimensions      [0 1 -1 0 0 0 0];

internalField   nonuniform List<vector> 
10790
(
(-0.000715159 0 0.000671078)
(-0.00222565 0 0.00063962)
(-0.00390597 0 0.000653313)
(-0.0054938 0 0.000751409)
(-0.00725007 0 0.000924067)
(-0.00965906 0 0.00112961)
(-0.013255 0 0.00138412)
(-0.0185454 0 0.0018579)
(-0.0274854 0 0.00246487)
(-0.0439891 0 0.00303815)
(-0.0733628 0 0.00858845)
(-0.171061 0 0.0370997)
(-0.258003 0 0.0630295)
(-0.0311616 0 0.0101652)
(-0.0402882 0 0.0169603)
(-0.0288089 0 0.0196135)
(-0.0222148 0 0.0209469)
(-0.0174822 0 0.0216442)
(-0.0138928 0 0.0220605)
(-0.0110467 0 0.0223364)
(-0.00870701 0 0.0225268)
(-0.00672509 0 0.022659)
(-0.00499252 0 0.0227454)
(-0.00342731 0 0.0227943)
(-0.00198051 0 0.0228242)
(-0.000632531 0 0.0228886)
(-0.000728081 0 0.0017994)
(-0.00222059 0 0.00180295)
(-0.00372163 0 0.00189264)
(-0.00504298 0 0.0021318)
(-0.00645537 0 0.00248632)
(-0.00833096 0 0.00291783)
(-0.0108793 0 0.0035862)
(-0.0141814 0 0.00500573)
(-0.0187638 0 0.00763042)
(-0.0254278 0 0.0115345)
(-0.0393337 0 0.0226645)
(-0.103808 0 0.0971074)
(-0.131175 0 0.09415)
(-0.0191107 0 -0.000297653)
(-0.0302247 0 0.010262)
(-0.0249063 0 0.0156561)
(-0.020281 0 0.0186893)
(-0.0164358 0 0.0205032)
(-0.0132573 0 0.0216719)
(-0.0106294 0 0.022471)
(-0.00842702 0 0.023038)
(-0.00654229 0 0.0234481)
(-0.00488627 0 0.0237385)
(-0.00337285 0 0.0239212)
(-0.00191946 0 0.0240023)
(-0.000598794 0 0.0240579)
(-0.000701966 0 0.00283532)
(-0.00212311 0 0.00294787)
(-0.00352862 0 0.00315851)
(-0.00477156 0 0.00351519)
(-0.00614773 0 0.00397233)
(-0.00786183 0 0.00448267)
(-0.00974737 0 0.00518524)
(-0.0117815 0 0.00663291)
(-0.0148781 0 0.00955478)
(-0.0185809 0 0.0141699)
(-0.0252966 0 0.0233158)
(-0.0726524 0 0.0769467)
(-0.0911711 0 0.0688227)
(-0.0152897 0 5.63306e-05)
(-0.0235511 0 0.00681176)
(-0.0207046 0 0.0117689)
(-0.017611 0 0.01516)
(-0.0146764 0 0.0174937)
(-0.0120612 0 0.0191315)
(-0.00978834 0 0.0203044)
(-0.0078159 0 0.0211602)
(-0.00609158 0 0.0217911)
(-0.00456807 0 0.0222582)
(-0.00319623 0 0.0225857)
(-0.00186274 0 0.0227679)
(-0.000591594 0 0.0228136)
(-0.00063304 0 0.00381916)
(-0.001945 0 0.00395999)
(-0.00322135 0 0.0042246)
(-0.00432522 0 0.00465752)
(-0.00562475 0 0.00534734)
(-0.00732516 0 0.00633338)
(-0.00904318 0 0.00762388)
(-0.0101971 0 0.00898969)
(-0.0110809 0 0.0103555)
(-0.0122613 0 0.0136165)
(-0.0154848 0 0.0213631)
(-0.0603397 0 0.080787)
(-0.0738238 0 0.0802709)
(-0.0120484 0 0.000123564)
(-0.0185202 0 0.00502679)
(-0.0167952 0 0.00923527)
(-0.0147498 0 0.0125337)
(-0.0125965 0 0.0150406)
(-0.0105382 0 0.0169295)
(-0.00866455 0 0.0183574)
(-0.00698529 0 0.0194364)
(-0.00547619 0 0.0202456)
(-0.00411348 0 0.020852)
(-0.00287673 0 0.0212824)
(-0.00169614 0 0.0215693)
(-0.000552448 0 0.0216775)
(-0.000570324 0 0.00469457)
(-0.00176004 0 0.00479091)
(-0.00287768 0 0.00503249)
(-0.00370527 0 0.00534464)
(-0.00453723 0 0.00590676)
(-0.00566122 0 0.00688223)
(-0.00719775 0 0.00855032)
(-0.00918446 0 0.0105979)
(-0.01023 0 0.0119249)
(-0.0098387 0 0.0134503)
(-0.0110307 0 0.0188269)
(-0.048274 0 0.0787839)
(-0.0574947 0 0.0803966)
(-0.0094061 0 0.000127296)
(-0.014462 0 0.00410089)
(-0.0133638 0 0.00767732)
(-0.011968 0 0.0107395)
(-0.0104033 0 0.0132431)
(-0.00883467 0 0.0152376)
(-0.00734783 0 0.0168088)
(-0.0059767 0 0.0180336)
(-0.00471214 0 0.0189709)
(-0.0035569 0 0.0196782)
(-0.00249634 0 0.0201836)
(-0.00147632 0 0.0205229)
(-0.000484778 0 0.0206803)
(-0.00054595 0 0.00547633)
(-0.00164854 0 0.0055814)
(-0.00271211 0 0.00584358)
(-0.00350587 0 0.0061392)
(-0.00416006 0 0.00654431)
(-0.00477266 0 0.0070939)
(-0.00542946 0 0.00820051)
(-0.00693633 0 0.010181)
(-0.008255 0 0.0125443)
(-0.00791188 0 0.0141519)
(-0.00849642 0 0.0179691)
(-0.0362803 0 0.0750476)
(-0.0417155 0 0.0746348)
(-0.00719458 0 0.000116807)
(-0.0109755 0 0.00349448)
(-0.0102965 0 0.00665841)
(-0.00933974 0 0.00950197)
(-0.00822212 0 0.0119252)
(-0.00706821 0 0.0139352)
(-0.00594228 0 0.0155696)
(-0.00488 0 0.0168791)
(-0.0038753 0 0.0179072)
(-0.00293312 0 0.0186852)
(-0.00205441 0 0.019255)
(-0.0012123 0 0.0196373)
(-0.000398739 0 0.0198217)
(-0.000476715 0 0.00603445)
(-0.00143279 0 0.00626804)
(-0.00236002 0 0.00658329)
(-0.00305033 0 0.00715166)
(-0.00363987 0 0.00784958)
(-0.00407621 0 0.00845865)
(-0.00420499 0 0.00911327)
(-0.00496674 0 0.0102534)
(-0.00628991 0 0.012332)
(-0.00650903 0 0.0139662)
(-0.00695574 0 0.0169524)
(-0.0243188 0 0.069444)
(-0.0277485 0 0.0652936)
(-0.00530399 0 0.000103308)
(-0.0079291 0 0.00305672)
(-0.00747965 0 0.00593678)
(-0.00684516 0 0.00860003)
(-0.00608873 0 0.0109335)
(-0.00528637 0 0.012928)
(-0.00448132 0 0.0145923)
(-0.00370109 0 0.0159558)
(-0.00295487 0 0.0170571)
(-0.00224637 0 0.0179045)
(-0.00157105 0 0.0185238)
(-0.000925887 0 0.018931)
(-0.000305864 0 0.0191277)
(-0.000328896 0 0.00630429)
(-0.0011425 0 0.00657381)
(-0.00187084 0 0.00675526)
(-0.0022896 0 0.00743457)
(-0.00290765 0 0.00832884)
(-0.00356293 0 0.00908497)
(-0.00369323 0 0.0095521)
(-0.00382064 0 0.0100994)
(-0.00463238 0 0.0116182)
(-0.00512536 0 0.0134032)
(-0.00548391 0 0.0161187)
(-0.00925291 0 0.0625568)
(-0.0156082 0 0.0513743)
(-0.0035654 0 8.89745e-05)
(-0.00516372 0 0.0028372)
(-0.00486598 0 0.00551483)
(-0.00447528 0 0.0080205)
(-0.004007 0 0.0102664)
(-0.00350483 0 0.0122344)
(-0.00299452 0 0.0139165)
(-0.00248187 0 0.015313)
(-0.00198075 0 0.0164469)
(-0.00150853 0 0.0173329)
(-0.00105811 0 0.017984)
(-0.000626919 0 0.0184054)
(-0.000208723 0 0.0186153)
(-0.000226535 0 0.00662817)
(-0.00102107 0 0.00672314)
(-0.001537 0 0.00673268)
(-0.00152868 0 0.00730367)
(-0.00204307 0 0.00816003)
(-0.00289693 0 0.00903901)
(-0.00322612 0 0.009661)
(-0.00297728 0 0.0102012)
(-0.00312315 0 0.0114223)
(-0.00346924 0 0.0132559)
(-0.00368619 0 0.0158369)
(0.0286329 0 0.0354787)
(-0.00533505 0 0.0276286)
(-0.001907 0 9.05862e-05)
(-0.00254235 0 0.00274883)
(-0.00240339 0 0.00531856)
(-0.00221965 0 0.00774149)
(-0.00198855 0 0.00994194)
(-0.00173753 0 0.01189)
(-0.00149064 0 0.0135764)
(-0.00124498 0 0.0149997)
(-0.000996049 0 0.016158)
(-0.000757489 0 0.0170636)
(-0.000533506 0 0.0177325)
(-0.000316431 0 0.0181691)
(-0.000104738 0 0.0183884)
(-0.000250522 0 0.00713201)
(-0.00106666 0 0.00701428)
(-0.00131782 0 0.00706127)
(-0.000906327 0 0.00748493)
(-0.00122444 0 0.00815473)
(-0.00210775 0 0.00899241)
(-0.00256492 0 0.00974054)
(-0.00211709 0 0.010413)
(-0.0017103 0 0.0114333)
(-0.00159512 0 0.0130413)
(-0.00116726 0 0.0144265)
(-0.000454716 0 0.0149695)
(-0.00728958 0 -0.0213236)
(0.0028269 0 0.00194729)
(5.65425e-06 0 0.00194252)
(-6.36363e-06 0 0.00351205)
(-1.00583e-05 0 0.00496912)
(-1.24379e-05 0 0.00627272)
(-1.41826e-05 0 0.00742817)
(-1.4685e-05 0 0.00844955)
(-1.36027e-05 0 0.00930617)
(-1.18049e-05 0 0.010001)
(-9.66978e-06 0 0.0105479)
(-7.32149e-06 0 0.0109506)
(-4.88956e-06 0 0.0112173)
(2.51429e-05 0 0.0113774)
(-0.000356707 0 0.00740945)
(-0.001114 0 0.00724997)
(-0.00108753 0 0.00751197)
(-0.00046463 0 0.00781432)
(-0.00057606 0 0.00823026)
(-0.00135357 0 0.00888763)
(-0.00183788 0 0.00961676)
(-0.00132372 0 0.0103131)
(-0.000609021 0 0.0110732)
(-6.22707e-05 0 0.0121433)
(0.00124107 0 0.0135802)
(0.00437486 0 0.0156566)
(0.0116906 0 0.0233394)
(0.00540192 0 0.0127635)
(-0.00216577 0 0.0077746)
(-0.0114441 0 0.0166908)
(-0.0168769 0 0.0257051)
(-0.0188665 0 0.0345454)
(-0.018517 0 0.0425335)
(-0.0168373 0 0.0492052)
(-0.0145056 0 0.0549095)
(-0.0118833 0 0.059724)
(-0.00927077 0 0.0635388)
(-0.00679162 0 0.0663239)
(-0.0043975 0 0.0679361)
(-0.00159928 0 0.0680272)
(-0.000422451 0 0.00721872)
(-0.000990513 0 0.00722933)
(-0.000775214 0 0.00769338)
(-0.000204271 0 0.00791309)
(-0.000174935 0 0.00808779)
(-0.000753918 0 0.00850292)
(-0.00116786 0 0.00911931)
(-0.000679903 0 0.0097571)
(7.63524e-05 0 0.0102934)
(0.000761018 0 0.0108915)
(0.00196421 0 0.0115406)
(0.00385553 0 0.0117613)
(0.0053184 0 0.00910279)
(0.00995149 0 0.0120329)
(0.00196076 0 0.00381384)
(-0.0122012 0 0.0123784)
(-0.014798 0 0.0231613)
(-0.015002 0 0.0301423)
(-0.0142541 0 0.0358442)
(-0.0129229 0 0.0405196)
(-0.0112294 0 0.0445316)
(-0.00929779 0 0.0479461)
(-0.00732761 0 0.0506633)
(-0.00538572 0 0.0526509)
(-0.00347445 0 0.05393)
(-0.00135455 0 0.0543239)
(-0.000369702 0 0.00681543)
(-0.000681828 0 0.00705202)
(-0.000428874 0 0.00755136)
(-8.04229e-05 0 0.00770519)
(8.04274e-07 0 0.00772303)
(-0.000346188 0 0.00792904)
(-0.000609664 0 0.00839244)
(-0.000160733 0 0.00891065)
(0.000529837 0 0.00928159)
(0.0011539 0 0.00968234)
(0.00204518 0 0.00991098)
(0.00320366 0 0.00975736)
(0.0042029 0 0.00876788)
(0.00456399 0 0.00706156)
(0.00409105 0 0.00576596)
(0.00333202 0 0.00528584)
(0.00246492 0 0.00513207)
(0.00162512 0 0.00522455)
(0.000915281 0 0.00549284)
(0.000365251 0 0.00588332)
(-1.26143e-05 0 0.00633194)
(-0.000234415 0 0.00680308)
(-0.000331347 0 0.00723071)
(-0.000204158 0 0.00755091)
(-7.24162e-05 0 0.00770041)
(-0.000100372 0 0.00769077)
(-0.000213478 0 0.0065551)
(-0.000301665 0 0.00692341)
(-0.000146549 0 0.00729662)
(-4.06312e-05 0 0.0073832)
(3.97076e-05 0 0.00734015)
(-0.00010306 0 0.0074343)
(-0.000207972 0 0.00777734)
(0.000196882 0 0.00817403)
(0.000854578 0 0.00840948)
(0.0014202 0 0.00871605)
(0.00208014 0 0.00881911)
(0.00282606 0 0.00863342)
(0.00342817 0 0.00798588)
(0.00363808 0 0.00700263)
(0.00341295 0 0.00619152)
(0.00304728 0 0.00560294)
(0.0025721 0 0.00517118)
(0.00202053 0 0.00488142)
(0.001483 0 0.00472188)
(0.0010148 0 0.00466347)
(0.000643549 0 0.00469607)
(0.000361226 0 0.00474316)
(0.000133592 0 0.00477984)
(3.10329e-05 0 0.00487109)
(-1.13691e-05 0 0.0048016)
(-4.43796e-05 0 0.00478034)
(-3.20234e-05 0 0.00656249)
(1.30234e-05 0 0.00690152)
(1.21582e-05 0 0.00708759)
(-4.18667e-05 0 0.00711174)
(4.57298e-05 0 0.00706576)
(7.63995e-05 0 0.00713012)
(0.000110902 0 0.00740711)
(0.000457164 0 0.00771564)
(0.00106836 0 0.00783684)
(0.00158487 0 0.00794018)
(0.00201831 0 0.00793273)
(0.0024586 0 0.00768405)
(0.00281205 0 0.00717765)
(0.00296769 0 0.00647198)
(0.0028563 0 0.00585078)
(0.00259771 0 0.00533089)
(0.00223819 0 0.00492398)
(0.00180701 0 0.00461007)
(0.00137394 0 0.00441435)
(0.000989649 0 0.0043307)
(0.000654888 0 0.00435859)
(0.000360321 0 0.00443732)
(0.000208424 0 0.00448063)
(0.000151565 0 0.00458638)
(4.97329e-05 0 0.0046299)
(-1.41218e-05 0 0.00462418)
(9.45668e-05 0 0.00669328)
(0.000181235 0 0.00688311)
(5.15224e-05 0 0.00692264)
(-6.48433e-05 0 0.00691228)
(5.38061e-05 0 0.00688031)
(0.000226063 0 0.00693209)
(0.000361225 0 0.0071567)
(0.000616208 0 0.00741056)
(0.00107599 0 0.00751021)
(0.00152444 0 0.00747426)
(0.00185819 0 0.00739773)
(0.00213866 0 0.0071744)
(0.0023478 0 0.00681869)
(0.00244165 0 0.00633239)
(0.00236861 0 0.00584138)
(0.00217022 0 0.00539167)
(0.00188384 0 0.00500462)
(0.00155528 0 0.00469309)
(0.00124385 0 0.00446205)
(0.000989481 0 0.00434686)
(0.000764908 0 0.00433121)
(0.000493931 0 0.00439857)
(0.000293733 0 0.00447449)
(0.00019543 0 0.00450094)
(7.09148e-05 0 0.00450733)
(-4.9457e-06 0 0.00449122)
(0.000138116 0 0.00669512)
(0.00021514 0 0.00673974)
(3.30576e-05 0 0.00672442)
(-8.54819e-05 0 0.00673289)
(6.21901e-05 0 0.00673651)
(0.000342127 0 0.00677406)
(0.00057455 0 0.00692932)
(0.000799262 0 0.00712601)
(0.00112584 0 0.00724701)
(0.00147162 0 0.00721659)
(0.00173118 0 0.00712429)
(0.00191231 0 0.00693283)
(0.00202317 0 0.00665544)
(0.00205071 0 0.00628793)
(0.00197087 0 0.00589403)
(0.00179873 0 0.0055186)
(0.00155762 0 0.00518961)
(0.00128747 0 0.00491834)
(0.00104629 0 0.0047)
(0.000869613 0 0.00452582)
(0.000719355 0 0.00442391)
(0.000512922 0 0.00437944)
(0.000317817 0 0.00439954)
(0.000194039 0 0.00439551)
(6.9885e-05 0 0.00438641)
(-9.87594e-07 0 0.00437242)
(0.000124307 0 0.00645775)
(0.000189714 0 0.00642525)
(3.70096e-05 0 0.00642839)
(-5.49151e-05 0 0.0064978)
(9.19738e-05 0 0.00656688)
(0.000409964 0 0.00660789)
(0.000699075 0 0.00667966)
(0.000919571 0 0.00677159)
(0.0011557 0 0.00682191)
(0.00139683 0 0.00675453)
(0.00157988 0 0.00660764)
(0.00168884 0 0.00638898)
(0.00173452 0 0.0061139)
(0.00171987 0 0.00578977)
(0.0016397 0 0.00545633)
(0.0014993 0 0.00515232)
(0.00130584 0 0.0049035)
(0.00108161 0 0.00471233)
(0.000876515 0 0.00456989)
(0.000735118 0 0.00445076)
(0.000628832 0 0.00435225)
(0.000479186 0 0.00429537)
(0.000315671 0 0.0042929)
(0.000190781 0 0.00429006)
(7.21221e-05 0 0.00428531)
(4.73773e-06 0 0.00427531)
(9.33791e-05 0 0.00604347)
(0.000167775 0 0.00600189)
(9.6435e-05 0 0.00603839)
(4.83265e-05 0 0.00616347)
(0.000168961 0 0.00630206)
(0.000448793 0 0.00637691)
(0.00072804 0 0.00640284)
(0.000930561 0 0.00640838)
(0.00110191 0 0.00637172)
(0.0012581 0 0.00625333)
(0.00137404 0 0.00606498)
(0.00143457 0 0.00582569)
(0.00144706 0 0.00555539)
(0.00142118 0 0.00526718)
(0.00136275 0 0.0049862)
(0.00127302 0 0.0047407)
(0.00114338 0 0.00455384)
(0.000973243 0 0.00443423)
(0.000795041 0 0.0043672)
(0.000659533 0 0.00431782)
(0.000564927 0 0.00426363)
(0.000449149 0 0.00422095)
(0.00031174 0 0.00421329)
(0.000190181 0 0.00421203)
(7.47318e-05 0 0.00420696)
(8.081e-06 0 0.00419332)
(7.07176e-05 0 0.0056169)
(0.000166688 0 0.00559623)
(0.000188085 0 0.00563755)
(0.00020136 0 0.00577187)
(0.000300587 0 0.00594105)
(0.000506829 0 0.00605198)
(0.000726419 0 0.00607971)
(0.000886804 0 0.00605614)
(0.00100386 0 0.00598559)
(0.00109817 0 0.00585752)
(0.00116529 0 0.00567844)
(0.00119629 0 0.00546696)
(0.00119456 0 0.00524073)
(0.00116917 0 0.00501142)
(0.00113074 0 0.00479063)
(0.0010831 0 0.00459209)
(0.00101307 0 0.00443211)
(0.000902608 0 0.00432564)
(0.000761558 0 0.00427077)
(0.000630268 0 0.00424273)
(0.000529548 0 0.00420933)
(0.000425116 0 0.00417313)
(0.000303026 0 0.00415527)
(0.000184821 0 0.00414485)
(7.12457e-05 0 0.00413265)
(7.56358e-06 0 0.0041118)
(5.96817e-05 0 0.00531898)
(0.000170384 0 0.00531641)
(0.000262644 0 0.00533528)
(0.000343326 0 0.00543039)
(0.000442769 0 0.0055699)
(0.000584748 0 0.00567678)
(0.000733411 0 0.00570892)
(0.000841922 0 0.00568358)
(0.00091339 0 0.00561447)
(0.000965549 0 0.00550565)
(0.00100172 0 0.00536486)
(0.0010161 0 0.00520601)
(0.00100842 0 0.00504116)
(0.000983998 0 0.00487816)
(0.00095254 0 0.00472007)
(0.000921268 0 0.0045683)
(0.000882552 0 0.00442917)
(0.000816292 0 0.00431636)
(0.000714544 0 0.00424042)
(0.000598165 0 0.00419475)
(0.000494408 0 0.00415454)
(0.000393808 0 0.00411215)
(0.0002825 0 0.00408126)
(0.000170288 0 0.00405973)
(6.10385e-05 0 0.00404161)
(3.70589e-06 0 0.00401681)
(5.44185e-05 0 0.00517939)
(0.000165905 0 0.00518534)
(0.00029518 0 0.00518186)
(0.000428288 0 0.00522216)
(0.000540486 0 0.00529447)
(0.000643811 0 0.00535342)
(0.00073693 0 0.00536272)
(0.000800982 0 0.00532678)
(0.000838196 0 0.00525891)
(0.000863506 0 0.00516635)
(0.000882658 0 0.0050558)
(0.000890586 0 0.00493702)
(0.000882734 0 0.00481762)
(0.0008599 0 0.0047025)
(0.000827217 0 0.00459161)
(0.000794052 0 0.00448081)
(0.000760367 0 0.00436836)
(0.000713146 0 0.00426167)
(0.000639564 0 0.00417368)
(0.000544665 0 0.00410951)
(0.000448354 0 0.00405874)
(0.000353829 0 0.00401185)
(0.000253024 0 0.00397499)
(0.00014972 0 0.00394925)
(4.72883e-05 0 0.00393142)
(-1.66623e-06 0 0.00390669)
(5.20034e-05 0 0.00512668)
(0.000156877 0 0.00513868)
(0.000294604 0 0.00512972)
(0.000450755 0 0.00512898)
(0.000569416 0 0.00513402)
(0.000651157 0 0.00512947)
(0.000708158 0 0.00509591)
(0.000741323 0 0.00503389)
(0.00075665 0 0.0049538)
(0.000766167 0 0.00486258)
(0.00077623 0 0.00476319)
(0.000783853 0 0.0046611)
(0.000783039 0 0.00456138)
(0.0007689 0 0.00446752)
(0.000739115 0 0.00438039)
(0.00070218 0 0.00429645)
(0.000662914 0 0.00421049)
(0.000618203 0 0.00412316)
(0.00055832 0 0.00404357)
(0.000480405 0 0.00397952)
(0.000395412 0 0.00392969)
(0.000309684 0 0.00388719)
(0.000219941 0 0.00385344)
(0.000127378 0 0.0038299)
(3.30649e-05 0 0.00381412)
(-7.99547e-06 0 0.00378892)
(5.32596e-05 0 0.00506998)
(0.00015345 0 0.00508935)
(0.000281789 0 0.00508869)
(0.000430809 0 0.00506788)
(0.00054017 0 0.00502828)
(0.000606031 0 0.00497356)
(0.000641985 0 0.00490082)
(0.000658207 0 0.00481302)
(0.000663924 0 0.00471757)
(0.000667611 0 0.00462001)
(0.00067374 0 0.00452118)
(0.000680651 0 0.00442225)
(0.000683786 0 0.00432586)
(0.000678221 0 0.0042363)
(0.00066024 0 0.00415531)
(0.000631315 0 0.00408111)
(0.000592559 0 0.0040113)
(0.000548116 0 0.00394262)
(0.000494716 0 0.00387836)
(0.000427563 0 0.00382439)
(0.000352268 0 0.00378229)
(0.000274474 0 0.00374793)
(0.000193518 0 0.00372045)
(0.000109727 0 0.00370057)
(2.21058e-05 0 0.00368695)
(-1.32471e-05 0 0.00366365)
(5.86536e-05 0 0.00495911)
(0.000159654 0 0.00498468)
(0.000269256 0 0.00499284)
(0.000390076 0 0.00496452)
(0.000476836 0 0.00490441)
(0.000527347 0 0.00482398)
(0.00055234 0 0.00472998)
(0.00056245 0 0.00462906)
(0.000566567 0 0.00452665)
(0.000570588 0 0.00442596)
(0.00057657 0 0.00432751)
(0.000583367 0 0.00423084)
(0.000587704 0 0.00413737)
(0.000586311 0 0.00404875)
(0.000575986 0 0.00396744)
(0.000555264 0 0.00389539)
(0.000525064 0 0.00383086)
(0.000489092 0 0.00377021)
(0.000445652 0 0.0037134)
(0.000389128 0 0.00366553)
(0.000322435 0 0.0036283)
(0.000250928 0 0.00359848)
(0.000175669 0 0.00357448)
(9.66007e-05 0 0.0035565)
(1.32588e-05 0 0.0035453)
(-1.52305e-05 0 0.00352478)
(6.68594e-05 0 0.00478678)
(0.000170787 0 0.0048139)
(0.000256601 0 0.00482006)
(0.000341072 0 0.00478611)
(0.000399672 0 0.00471975)
(0.000433465 0 0.00463359)
(0.000451386 0 0.00453703)
(0.000461781 0 0.00443724)
(0.000469787 0 0.00433861)
(0.000478027 0 0.0042426)
(0.000486979 0 0.00414938)
(0.000495834 0 0.00405843)
(0.000502611 0 0.00396936)
(0.00050444 0 0.00388488)
(0.000498934 0 0.00380715)
(0.000484135 0 0.0037371)
(0.000459486 0 0.00367563)
(0.000427573 0 0.00362044)
(0.000389759 0 0.00356924)
(0.000343056 0 0.0035237)
(0.000286997 0 0.00348562)
(0.00022404 0 0.0034543)
(0.000155325 0 0.00342902)
(8.07483e-05 0 0.00340994)
(2.1201e-06 0 0.00339952)
(-1.85312e-05 0 0.00337725)
(7.51178e-05 0 0.00456713)
(0.000177914 0 0.0045892)
(0.000236784 0 0.00458199)
(0.000288236 0 0.00453993)
(0.000322569 0 0.00447248)
(0.000342442 0 0.00439057)
(0.00035438 0 0.00430286)
(0.000364136 0 0.00421452)
(0.000374165 0 0.00412817)
(0.000385539 0 0.00404388)
(0.000398694 0 0.00396072)
(0.000412813 0 0.00387783)
(0.000425238 0 0.00379607)
(0.000432133 0 0.00371814)
(0.00043189 0 0.00364505)
(0.000423456 0 0.00357762)
(0.000405064 0 0.00351731)
(0.000377361 0 0.00346459)
(0.000342756 0 0.00341727)
(0.000300717 0 0.00337459)
(0.000250723 0 0.00333726)
(0.000194038 0 0.00330532)
(0.00013143 0 0.00327849)
(6.30578e-05 0 0.00325757)
(-9.47889e-06 0 0.00324681)
(-2.28714e-05 0 0.00322433)
(8.00044e-05 0 0.00431853)
(0.000173632 0 0.00432954)
(0.000204731 0 0.00430485)
(0.00023213 0 0.00425454)
(0.000250395 0 0.004188)
(0.000262396 0 0.00411346)
(0.00027196 0 0.0040375)
(0.000281828 0 0.00396316)
(0.000292576 0 0.00389129)
(0.000304224 0 0.00382144)
(0.000317161 0 0.00375248)
(0.000331143 0 0.00368352)
(0.000344771 0 0.00361434)
(0.000355838 0 0.0035454)
(0.000362746 0 0.00347698)
(0.000363192 0 0.00341038)
(0.000353702 0 0.00334845)
(0.000332858 0 0.00329417)
(0.000302908 0 0.00324621)
(0.000265041 0 0.00320303)
(0.000219619 0 0.00316512)
(0.000167589 0 0.00313269)
(0.00010965 0 0.00310579)
(4.72781e-05 0 0.00308605)
(-1.87536e-05 0 0.00307812)
(-2.68951e-05 0 0.00306082)
(7.89279e-05 0 0.00405155)
(0.000155906 0 0.00404905)
(0.000162099 0 0.00401188)
(0.000174786 0 0.00395784)
(0.000184816 0 0.00389522)
(0.000194127 0 0.00382953)
(0.000204375 0 0.0037647)
(0.000215834 0 0.00370234)
(0.000227775 0 0.00364256)
(0.000239684 0 0.0035849)
(0.000251886 0 0.00352853)
(0.000264518 0 0.00347258)
(0.000276651 0 0.00341655)
(0.000286811 0 0.00336012)
(0.000293825 0 0.00330304)
(0.000295983 0 0.00324564)
(0.000290773 0 0.00318922)
(0.000276665 0 0.00313571)
(0.000254117 0 0.00308569)
(0.000223466 0 0.00303978)
(0.000184882 0 0.00299936)
(0.000139161 0 0.00296526)
(8.73698e-05 0 0.00293792)
(3.1459e-05 0 0.00291927)
(-2.71992e-05 0 0.0029125)
(-3.01491e-05 0 0.0028988)
(7.16029e-05 0 0.00376998)
(0.000128411 0 0.00375638)
(0.000116032 0 0.00371608)
(0.000120915 0 0.00366559)
(0.0001279 0 0.00361127)
(0.000137294 0 0.00355631)
(0.000149186 0 0.00350241)
(0.000162566 0 0.0034502)
(0.00017609 0 0.00339981)
(0.000188949 0 0.00335123)
(0.000201254 0 0.00330407)
(0.000213213 0 0.00325763)
(0.000224099 0 0.00321128)
(0.000232506 0 0.00316461)
(0.000237535 0 0.00311728)
(0.000238422 0 0.00306922)
(0.000233654 0 0.00302113)
(0.000221982 0 0.00297397)
(0.000203219 0 0.00292886)
(0.000177508 0 0.00288683)
(0.000145001 0 0.00284924)
(0.000106227 0 0.00281727)
(6.25705e-05 0 0.00279189)
(1.50484e-05 0 0.0027744)
(-3.47138e-05 0 0.00276531)
(-3.28067e-05 0 0.00274962)
(6.01656e-05 0 0.00347812)
(9.78529e-05 0 0.00345915)
(7.46749e-05 0 0.00342416)
(7.59444e-05 0 0.00338356)
(8.21894e-05 0 0.00334141)
(9.21618e-05 0 0.00329902)
(0.000105033 0 0.00325666)
(0.000119493 0 0.00321444)
(0.00013418 0 0.00317267)
(0.000148104 0 0.00313177)
(0.000160966 0 0.00309182)
(0.000172753 0 0.00305233)
(0.000182883 0 0.00301272)
(0.000190111 0 0.00297265)
(0.000193539 0 0.00293192)
(0.000192882 0 0.0028903)
(0.000187494 0 0.00284833)
(0.00017662 0 0.00280719)
(0.000160093 0 0.00276798)
(0.000138042 0 0.00273148)
(0.000110638 0 0.00269873)
(7.80747e-05 0 0.00267099)
(4.17016e-05 0 0.00264946)
(2.27874e-06 0 0.00263463)
(-3.86697e-05 0 0.0026258)
(-3.38681e-05 0 0.00261228)
(4.77601e-05 0 0.00318621)
(7.04976e-05 0 0.00316771)
(4.34225e-05 0 0.00314261)
(4.33281e-05 0 0.00311486)
(4.92938e-05 0 0.00308638)
(5.91016e-05 0 0.00305717)
(7.16454e-05 0 0.0030268)
(8.58697e-05 0 0.00299514)
(0.000100702 0 0.00296251)
(0.000115068 0 0.00292946)
(0.000128216 0 0.0028963)
(0.000139749 0 0.00286284)
(0.000149124 0 0.00282866)
(0.000155395 0 0.00279357)
(0.000157792 0 0.00275771)
(0.000156204 0 0.00272121)
(0.000150465 0 0.00268441)
(0.000140223 0 0.00264814)
(0.000125464 0 0.00261344)
(0.000106401 0 0.00258134)
(8.33139e-05 0 0.00255287)
(5.63244e-05 0 0.00252916)
(2.6194e-05 0 0.00251165)
(-6.312e-06 0 0.00250019)
(-3.94447e-05 0 0.00249249)
(-3.28532e-05 0 0.00248451)
(3.689e-05 0 0.00290809)
(4.99327e-05 0 0.00289367)
(2.37751e-05 0 0.00287904)
(2.34186e-05 0 0.00286358)
(2.88754e-05 0 0.00284759)
(3.76692e-05 0 0.00283043)
(4.88186e-05 0 0.00281146)
(6.16639e-05 0 0.0027904)
(7.54672e-05 0 0.00276736)
(8.91751e-05 0 0.00274266)
(0.000101729 0 0.0027166)
(0.000112414 0 0.00268915)
(0.000120676 0 0.00266018)
(0.000125835 0 0.00262972)
(0.000127348 0 0.00259814)
(0.000125201 0 0.00256594)
(0.000119485 0 0.00253363)
(0.000110132 0 0.00250203)
(9.72201e-05 0 0.00247205)
(8.09626e-05 0 0.00244458)
(6.16502e-05 0 0.00242049)
(3.95535e-05 0 0.00240065)
(1.4993e-05 0 0.00238635)
(-1.155e-05 0 0.0023778)
(-3.83135e-05 0 0.00237264)
(-3.03137e-05 0 0.00236651)
(2.86839e-05 0 0.00265542)
(3.67738e-05 0 0.00264608)
(1.41994e-05 0 0.00263993)
(1.40861e-05 0 0.00263391)
(1.8856e-05 0 0.00262752)
(2.62901e-05 0 0.00261994)
(3.56355e-05 0 0.00261059)
(4.64957e-05 0 0.00259905)
(5.83645e-05 0 0.00258508)
(7.03041e-05 0 0.00256863)
(8.11834e-05 0 0.00254978)
(9.01572e-05 0 0.0025286)
(9.67167e-05 0 0.00250514)
(0.000100427 0 0.00247967)
(0.00010098 0 0.00245272)
(9.8435e-05 0 0.00242502)
(9.29785e-05 0 0.00239723)
(8.46799e-05 0 0.00237017)
(7.36398e-05 0 0.00234467)
(6.00578e-05 0 0.0023215)
(4.41559e-05 0 0.00230141)
(2.62387e-05 0 0.00228504)
(6.47525e-06 0 0.00227325)
(-1.49259e-05 0 0.00226646)
(-3.65572e-05 0 0.00226292)
(-2.7233e-05 0 0.00225827)
(2.31157e-05 0 0.00243437)
(2.96442e-05 0 0.00242942)
(1.16537e-05 0 0.00242873)
(1.20487e-05 0 0.00242864)
(1.62726e-05 0 0.00242846)
(2.25428e-05 0 0.00242749)
(3.02542e-05 0 0.00242516)
(3.90711e-05 0 0.00242097)
(4.85859e-05 0 0.0024144)
(5.80394e-05 0 0.00240505)
(6.64509e-05 0 0.0023928)
(7.30473e-05 0 0.00237772)
(7.74334e-05 0 0.00236001)
(7.93894e-05 0 0.00234002)
(7.88085e-05 0 0.00231837)
(7.5812e-05 0 0.0022958)
(7.06074e-05 0 0.002273)
(6.33044e-05 0 0.00225074)
(5.39648e-05 0 0.00222977)
(4.27327e-05 0 0.00221076)
(2.97731e-05 0 0.00219428)
(1.53182e-05 0 0.0021809)
(-5.21702e-07 0 0.00217111)
(-1.76722e-05 0 0.00216536)
(-3.5181e-05 0 0.00216243)
(-2.44649e-05 0 0.00215853)
(1.96023e-05 0 0.00224561)
(2.64709e-05 0 0.00224374)
(1.30058e-05 0 0.00224573)
(1.41344e-05 0 0.0022486)
(1.81798e-05 0 0.00225177)
(2.37204e-05 0 0.00225459)
(3.01988e-05 0 0.00225652)
(3.72258e-05 0 0.002257)
(4.44152e-05 0 0.00225539)
(5.1203e-05 0 0.00225116)
(5.68833e-05 0 0.00224409)
(6.08931e-05 0 0.00223424)
(6.29919e-05 0 0.00222184)
(6.31279e-05 0 0.0022073)
(6.1334e-05 0 0.00219117)
(5.77675e-05 0 0.00217407)
(5.26313e-05 0 0.00215662)
(4.60458e-05 0 0.00213941)
(3.80361e-05 0 0.00212307)
(2.86594e-05 0 0.00210817)
(1.8023e-05 0 0.00209518)
(6.28503e-06 0 0.00208451)
(-6.49061e-06 0 0.00207654)
(-2.03004e-05 0 0.00207159)
(-3.45775e-05 0 0.00206885)
(-2.24555e-05 0 0.00206506)
(1.74662e-05 0 0.00208624)
(2.54263e-05 0 0.00208623)
(1.59273e-05 0 0.00208903)
(1.80147e-05 0 0.00209291)
(2.22452e-05 0 0.00209739)
(2.74117e-05 0 0.00210182)
(3.29772e-05 0 0.00210564)
(3.85127e-05 0 0.00210828)
(4.36564e-05 0 0.00210918)
(4.80286e-05 0 0.00210789)
(5.1211e-05 0 0.00210419)
(5.28865e-05 0 0.00209816)
(5.29667e-05 0 0.00209005)
(5.15108e-05 0 0.00208022)
(4.86261e-05 0 0.0020691)
(4.44742e-05 0 0.00205717)
(3.92366e-05 0 0.00204485)
(3.30368e-05 0 0.00203256)
(2.59005e-05 0 0.00202074)
(1.78243e-05 0 0.00200983)
(8.85034e-06 0 0.00200019)
(-9.2254e-07 0 0.00199216)
(-1.14608e-05 0 0.00198597)
(-2.28002e-05 0 0.00198189)
(-3.46569e-05 0 0.00197932)
(-2.12423e-05 0 0.0019754)
(1.6164e-05 0 0.00195171)
(2.53178e-05 0 0.00195272)
(1.90978e-05 0 0.0019554)
(2.22755e-05 0 0.00195923)
(2.68649e-05 0 0.00196373)
(3.17921e-05 0 0.00196823)
(3.65861e-05 0 0.00197217)
(4.08624e-05 0 0.0019751)
(4.43279e-05 0 0.00197662)
(4.67613e-05 0 0.00197646)
(4.79751e-05 0 0.00197451)
(4.78548e-05 0 0.00197086)
(4.64254e-05 0 0.00196576)
(4.38023e-05 0 0.0019595)
(4.01144e-05 0 0.00195237)
(3.55015e-05 0 0.0019447)
(3.01113e-05 0 0.00193674)
(2.40619e-05 0 0.00192872)
(1.74025e-05 0 0.0019209)
(1.01189e-05 0 0.00191357)
(2.20962e-06 0 0.00190699)
(-6.27192e-06 0 0.00190138)
(-1.53181e-05 0 0.00189695)
(-2.49771e-05 0 0.00189383)
(-3.51324e-05 0 0.00189158)
(-2.06367e-05 0 0.00188759)
(1.53591e-05 0 0.00183705)
(2.55687e-05 0 0.00183865)
(2.1938e-05 0 0.00184092)
(2.61044e-05 0 0.00184415)
(3.09708e-05 0 0.00184782)
(3.56014e-05 0 0.00185135)
(3.96558e-05 0 0.00185428)
(4.28679e-05 0 0.00185632)
(4.50463e-05 0 0.00185729)
(4.6091e-05 0 0.00185708)
(4.59612e-05 0 0.00185572)
(4.46679e-05 0 0.00185332)
(4.22963e-05 0 0.00185009)
(3.89756e-05 0 0.00184622)
(3.48254e-05 0 0.0018419)
(2.99512e-05 0 0.00183733)
(2.44614e-05 0 0.00183261)
(1.84607e-05 0 0.00182787)
(1.20224e-05 0 0.00182321)
(5.15259e-06 0 0.00181876)
(-2.16122e-06 0 0.0018147)
(-9.88611e-06 0 0.00181117)
(-1.80313e-05 0 0.00180829)
(-2.66486e-05 0 0.00180617)
(-3.56927e-05 0 0.00180437)
(-2.03856e-05 0 0.00180055)
(1.49065e-05 0 0.00173754)
(2.59915e-05 0 0.0017396)
(2.42055e-05 0 0.0017414)
(2.89775e-05 0 0.00174366)
(3.38429e-05 0 0.00174595)
(3.80405e-05 0 0.00174789)
(4.13875e-05 0 0.0017492)
(4.37533e-05 0 0.00174978)
(4.50433e-05 0 0.00174963)
(4.5232e-05 0 0.00174878)
(4.43473e-05 0 0.00174733)
(4.24498e-05 0 0.0017454)
(3.96368e-05 0 0.00174315)
(3.60244e-05 0 0.00174069)
(3.17118e-05 0 0.00173812)
(2.67739e-05 0 0.00173552)
(2.12836e-05 0 0.00173295)
(1.53281e-05 0 0.00173041)
(8.9948e-06 0 0.00172794)
(2.31832e-06 0 0.00172558)
(-4.70247e-06 0 0.0017234)
(-1.20346e-05 0 0.00172147)
(-1.96878e-05 0 0.00171987)
(-2.77046e-05 0 0.00171867)
(-3.6075e-05 0 0.00171745)
(-2.02676e-05 0 0.00171401)
(1.47672e-05 0 0.00164903)
(2.65127e-05 0 0.00165149)
(2.5711e-05 0 0.00165269)
(3.0533e-05 0 0.00165372)
(3.50657e-05 0 0.00165436)
(3.87275e-05 0 0.00165447)
(4.14636e-05 0 0.00165402)
(4.32397e-05 0 0.00165304)
(4.4021e-05 0 0.00165165)
(4.38107e-05 0 0.00164996)
(4.26482e-05 0 0.0016481)
(4.05918e-05 0 0.00164618)
(3.77186e-05 0 0.0016443)
(3.41177e-05 0 0.0016425)
(2.98673e-05 0 0.00164083)
(2.50235e-05 0 0.00163931)
(1.96362e-05 0 0.00163794)
(1.37756e-05 0 0.0016367)
(7.53144e-06 0 0.00163556)
(9.60818e-07 0 0.00163453)
(-5.91767e-06 0 0.0016336)
(-1.3061e-05 0 0.0016328)
(-2.04672e-05 0 0.00163215)
(-2.81589e-05 0 0.00163171)
(-3.61434e-05 0 0.00163103)
(-2.01275e-05 0 0.0016281)
(1.48844e-05 0 0.00156793)
(2.69793e-05 0 0.00157061)
(2.62523e-05 0 0.00157101)
(3.06008e-05 0 0.0015707)
(3.45614e-05 0 0.00156972)
(3.76824e-05 0 0.00156817)
(3.99669e-05 0 0.00156618)
(4.14133e-05 0 0.00156389)
(4.20021e-05 0 0.00156145)
(4.17312e-05 0 0.00155898)
(4.06213e-05 0 0.00155662)
(3.87039e-05 0 0.00155445)
(3.60227e-05 0 0.00155253)
(3.26352e-05 0 0.00155089)
(2.86009e-05 0 0.00154953)
(2.3967e-05 0 0.00154842)
(1.87727e-05 0 0.00154756)
(1.30761e-05 0 0.00154692)
(6.96151e-06 0 0.00154646)
(4.96505e-07 0 0.00154613)
(-6.28249e-06 0 0.00154592)
(-1.33206e-05 0 0.00154581)
(-2.05995e-05 0 0.00154579)
(-2.81212e-05 0 0.00154589)
(-3.58875e-05 0 0.00154569)
(-1.99023e-05 0 0.00154329)
(1.51068e-05 0 0.00149119)
(2.71302e-05 0 0.00149372)
(2.57149e-05 0 0.0014932)
(2.92742e-05 0 0.00149167)
(3.25946e-05 0 0.00148942)
(3.5265e-05 0 0.00148667)
(3.72741e-05 0 0.00148364)
(3.86002e-05 0 0.00148047)
(3.92077e-05 0 0.00147732)
(3.90743e-05 0 0.00147429)
(3.81943e-05 0 0.00147148)