/*--------------------------------*- C++ -*----------------------------------*\
  =========                 |
  \\      /  F ield         | OpenFOAM: The Open Source CFD Toolbox
   \\    /   O peration     | Website:  https://openfoam.org
    \\  /    A nd           | Version:  7
     \\/     M anipulation  |
\*---------------------------------------------------------------------------*/
FoamFile
{
    version     2.0;
    format      ascii;
    class       volVectorField;
    location    "0.01";
    object      Ur;
}
// * * * * * * * * * * * * * * * * * * * * * * * * * * * * * * * * * * * * * //

dimensions      [0 1 -1 0 0 0 0];

internalField   nonuniform List<vector> 
10790
(
(0.00145303 0 -0.00143923)
(0.00493507 0 -0.00134467)
(0.00859495 0 -0.00135656)
(0.0118447 0 -0.00157399)
(0.0150236 0 -0.0019975)
(0.0188897 0 -0.00254881)
(0.0240863 0 -0.00325602)
(0.0303993 0 -0.00443284)
(0.035972 0 -0.00654453)
(0.0428543 0 -0.0104411)
(0.0391787 0 -0.0179836)
(-0.0137016 0 -0.0831016)
(0.0020602 0 -0.0886454)
(-0.00502856 0 -0.0141043)
(0.00584561 0 -0.0141457)
(0.00425371 0 -0.0144991)
(0.00355981 0 -0.0148276)
(0.00279601 0 -0.0149571)
(0.0021744 0 -0.0149906)
(0.00169996 0 -0.0150105)
(0.00131655 0 -0.015023)
(0.0010032 0 -0.015027)
(0.000743574 0 -0.0150256)
(0.00053112 0 -0.0150309)
(0.000359269 0 -0.0150322)
(0.000140044 0 -0.0148989)
(0.00157207 0 -0.00406658)
(0.00506359 0 -0.00405584)
(0.00848529 0 -0.0042537)
(0.0114607 0 -0.00480596)
(0.0145685 0 -0.00563327)
(0.018631 0 -0.00663809)
(0.0240337 0 -0.00819453)
(0.0306764 0 -0.0116196)
(0.0383646 0 -0.017489)
(0.0456626 0 -0.0246848)
(0.0402888 0 -0.0376692)
(-0.023157 0 -0.00523469)
(0.0101554 0 -0.00862348)
(-0.00665489 0 6.73128e-05)
(0.00425673 0 -0.00125114)
(0.00325671 0 -0.0017454)
(0.00279451 0 -0.00223689)
(0.00236635 0 -0.00252613)
(0.00189729 0 -0.00267984)
(0.00148611 0 -0.00277985)
(0.00115363 0 -0.00285001)
(0.000882535 0 -0.00290151)
(0.000643752 0 -0.00294425)
(0.00043873 0 -0.00300656)
(0.000384509 0 -0.00311252)
(0.000206935 0 -0.00309559)
(0.00149589 0 -0.00637616)
(0.00480725 0 -0.00661177)
(0.00796611 0 -0.00705254)
(0.0107052 0 -0.00782006)
(0.0136608 0 -0.00878927)
(0.0172351 0 -0.00980416)
(0.0208536 0 -0.0111086)
(0.0243431 0 -0.0140479)
(0.0299966 0 -0.0206103)
(0.0344906 0 -0.0314691)
(0.0244122 0 -0.0429494)
(-0.0484154 0 -0.0102491)
(-0.00642478 0 -0.0079095)
(-0.000710802 0 6.52954e-05)
(0.00344036 0 -0.000940079)
(0.00294832 0 -0.00145486)
(0.00251446 0 -0.00180332)
(0.00213446 0 -0.00209997)
(0.00174548 0 -0.00231815)
(0.00139257 0 -0.00246096)
(0.00108869 0 -0.00254808)
(0.000828066 0 -0.00259695)
(0.000580617 0 -0.00262227)
(0.000324456 0 -0.00263079)
(0.000240315 0 -0.00272851)
(0.000140865 0 -0.0028652)
(0.00135506 0 -0.00859437)
(0.00439839 0 -0.00889519)
(0.00726676 0 -0.00945577)
(0.00970506 0 -0.0103909)
(0.012545 0 -0.0118982)
(0.0162334 0 -0.014048)
(0.0197005 0 -0.0167637)
(0.0212148 0 -0.0192679)
(0.0217449 0 -0.0214606)
(0.0235896 0 -0.0288399)
(0.0190925 0 -0.0356189)
(-0.0419991 0 0.0131882)
(-0.00173954 0 -0.00439264)
(-0.000323916 0 9.59862e-06)
(0.00270368 0 -0.000628367)
(0.00242992 0 -0.00119597)
(0.00218078 0 -0.00159202)
(0.00187587 0 -0.00192856)
(0.0015521 0 -0.00219408)
(0.00126553 0 -0.00239447)
(0.00102293 0 -0.0025374)
(0.000811023 0 -0.00263351)
(0.000611423 0 -0.00270346)
(0.000335564 0 -0.00269007)
(0.000158492 0 -0.0026937)
(7.80087e-05 0 -0.00279728)
(0.00123228 0 -0.01056)
(0.00397632 0 -0.0107619)
(0.0064859 0 -0.0112678)
(0.00829879 0 -0.0119144)
(0.0100759 0 -0.0131089)
(0.0124782 0 -0.0152302)
(0.0157398 0 -0.0189226)
(0.0197496 0 -0.0232579)
(0.020847 0 -0.025171)
(0.0186628 0 -0.027693)
(0.0143002 0 -0.0311032)
(-0.0319106 0 0.0223991)
(0.00122926 0 -0.00501085)
(0.000140098 0 6.73743e-06)
(0.00223452 0 -0.000560564)
(0.00202123 0 -0.000995118)
(0.00181293 0 -0.00139208)
(0.00155636 0 -0.00175821)
(0.00129612 0 -0.00204747)
(0.00106032 0 -0.00226891)
(0.000856852 0 -0.00244047)
(0.000666645 0 -0.00257212)
(0.000525672 0 -0.00268881)
(0.000333655 0 -0.00275237)
(0.000135257 0 -0.00274741)
(4.10057e-05 0 -0.00280806)
(0.00119452 0 -0.0123123)
(0.00372519 0 -0.012543)
(0.00612034 0 -0.0131034)
(0.00787936 0 -0.0137217)
(0.00928259 0 -0.0145556)
(0.0105479 0 -0.0156761)
(0.0118679 0 -0.0180663)
(0.0150919 0 -0.0224084)
(0.0174592 0 -0.0272547)
(0.0153207 0 -0.029768)
(0.0118118 0 -0.0303591)
(-0.0207551 0 0.0230695)
(0.00326743 0 -0.00638944)
(0.000411478 0 3.79288e-06)
(0.00170966 0 -0.000545226)
(0.00163055 0 -0.000994324)
(0.00144572 0 -0.00142114)
(0.0012424 0 -0.0017879)
(0.00105653 0 -0.00207098)
(0.000883332 0 -0.00227653)
(0.000727797 0 -0.00243532)
(0.000569187 0 -0.00256798)
(0.00043593 0 -0.0026662)
(0.000277929 0 -0.00276414)
(0.000102487 0 -0.00279594)
(1.8288e-05 0 -0.00282587)
(0.00104932 0 -0.0135535)
(0.00323246 0 -0.0140853)
(0.00532002 0 -0.0147751)
(0.00685729 0 -0.016039)
(0.00813998 0 -0.0175807)
(0.00903193 0 -0.0188761)
(0.0091711 0 -0.0202422)
(0.0107963 0 -0.0227088)
(0.0136288 0 -0.0272105)
(0.0134795 0 -0.0302006)
(0.0112549 0 -0.0298013)
(-0.00872321 0 0.0197728)
(0.00527168 0 -0.00900592)
(0.000807543 0 1.076e-06)
(0.00125169 0 -0.000399988)
(0.00117744 0 -0.000874796)
(0.00104495 0 -0.00131809)
(0.00092461 0 -0.0016862)
(0.000819311 0 -0.00198369)
(0.000704436 0 -0.00220795)
(0.000572393 0 -0.00238082)
(0.000441402 0 -0.00254572)
(0.000334402 0 -0.00267177)
(0.000206935 0 -0.00277779)
(7.29877e-05 0 -0.0028204)
(1.03532e-05 0 -0.00282589)
(0.000722706 0 -0.0141421)
(0.00257039 0 -0.0147571)
(0.00420631 0 -0.0151447)
(0.00513148 0 -0.0166682)
(0.00650112 0 -0.0186751)
(0.00793456 0 -0.0203418)
(0.00811916 0 -0.0212979)
(0.00828965 0 -0.0224013)
(0.0100819 0 -0.0257277)
(0.0110017 0 -0.0294296)
(0.0102314 0 -0.0304792)
(0.00611702 0 0.011999)
(0.00708682 0 -0.0151851)
(0.00115819 0 -2.30024e-06)
(0.000853452 0 -0.000404298)
(0.000742046 0 -0.000842734)
(0.000655972 0 -0.00123075)
(0.000592055 0 -0.00157251)
(0.000546048 0 -0.0018864)
(0.0004951 0 -0.00215971)
(0.000398533 0 -0.00236859)
(0.000286127 0 -0.00253578)
(0.000210122 0 -0.0026718)
(0.000133354 0 -0.00277819)
(5.37058e-05 0 -0.00281857)
(1.11155e-05 0 -0.00282337)
(0.000497864 0 -0.0148578)
(0.00229562 0 -0.015078)
(0.00345035 0 -0.0150792)
(0.00340808 0 -0.0163568)
(0.00455325 0 -0.0182816)
(0.0064651 0 -0.0202466)
(0.00715389 0 -0.0215982)
(0.00646673 0 -0.0227148)
(0.00670071 0 -0.0253763)
(0.00739465 0 -0.029331)
(0.00748083 0 -0.0325693)
(0.0431398 0 -0.0212055)
(0.0085997 0 -0.0274007)
(0.00104852 0 -1.32827e-05)
(0.000432634 0 -0.000486989)
(0.00037344 0 -0.000896072)
(0.000331112 0 -0.00125626)
(0.000283459 0 -0.00158169)
(0.000246566 0 -0.00188074)
(0.00023525 0 -0.00216027)
(0.000207505 0 -0.0024067)
(0.00014798 0 -0.00258643)
(0.000100057 0 -0.00271526)
(6.55782e-05 0 -0.00281383)
(2.78455e-05 0 -0.00286046)
(3.97948e-06 0 -0.00287112)
(0.000556213 0 -0.0159795)
(0.00239942 0 -0.015723)
(0.00295631 0 -0.0158156)
(0.00200595 0 -0.0167619)
(0.00270821 0 -0.0182658)
(0.00469716 0 -0.0201481)
(0.00570791 0 -0.0218196)
(0.00460586 0 -0.0232994)
(0.00354332 0 -0.0255207)
(0.00314862 0 -0.0289697)
(0.00134512 0 -0.0339046)
(-0.00354175 0 -0.0431481)
(-0.00609816 0 -0.03317)
(-0.00334703 0 -0.0022954)
(-5.11547e-06 0 -0.000805889)
(-2.879e-06 0 -0.000760175)
(-3.70305e-06 0 -0.000675096)
(-4.02962e-06 0 -0.000539349)
(-3.85581e-06 0 -0.000368626)
(-3.15488e-06 0 -0.000271882)
(-2.49997e-06 0 -0.000296166)
(-2.13464e-06 0 -0.000306136)
(-1.74632e-06 0 -0.000274092)
(-1.1314e-06 0 -0.000248421)
(-6.25023e-07 0 -0.000269328)
(1.52249e-06 0 -0.000252894)
(0.000797317 0 -0.0165897)
(0.00250535 0 -0.0162423)
(0.00243755 0 -0.0168224)
(0.00101998 0 -0.0174972)
(0.00125656 0 -0.0184276)
(0.00300338 0 -0.0199046)
(0.00408661 0 -0.021545)
(0.00287449 0 -0.0231137)
(0.00113325 0 -0.0247982)
(-0.000285158 0 -0.0270868)
(-0.00357318 0 -0.0300028)
(-0.0114001 0 -0.0330353)
(-0.0103054 0 -0.0146127)
(-0.0152293 0 -0.00977806)
(-0.0066648 0 -0.00556225)
(-0.00410168 0 -0.00457135)
(-0.0027558 0 -0.0028574)
(-0.0016434 0 -0.00132084)
(-0.000901732 0 -0.00017046)
(-0.000443243 0 0.000508883)
(-0.000162188 0 0.000843249)
(-8.08844e-06 0 0.000991702)
(6.00892e-05 0 0.00107282)
(7.01499e-05 0 0.00110088)
(3.96081e-05 0 0.00105219)
(9.05985e-06 0 0.00112155)
(0.000945994 0 -0.0161512)
(0.00222589 0 -0.0161864)
(0.00173496 0 -0.0172201)
(0.000443585 0 -0.0177071)
(0.00036939 0 -0.0180911)
(0.00166468 0 -0.0190157)
(0.00258871 0 -0.0203957)
(0.00146323 0 -0.0218332)
(-0.000318185 0 -0.0230419)
(-0.00201705 0 -0.0243419)
(-0.00498696 0 -0.025569)
(-0.00964205 0 -0.0256686)
(-0.0146682 0 -0.0227539)
(-0.0109621 0 -0.00675175)
(-0.0146909 0 -0.0108757)
(-0.0251314 0 -0.000582081)
(-0.0250508 0 0.0124259)
(-0.0225607 0 0.0210924)
(-0.0192987 0 0.0277589)
(-0.015827 0 0.0327662)
(-0.0125127 0 0.0366917)
(-0.00951509 0 0.039741)
(-0.00696478 0 0.0420118)
(-0.00491775 0 0.0435993)
(-0.00313978 0 0.0442218)
(-0.0012339 0 0.044764)
(0.000828027 0 -0.0152419)
(0.00153075 0 -0.0157834)
(0.000957366 0 -0.0168961)
(0.000170867 0 -0.0172335)
(-1.42777e-05 0 -0.0172625)
(0.000760944 0 -0.0177134)
(0.00134605 0 -0.0187468)
(0.000320723 0 -0.0199124)
(-0.00126953 0 -0.0207454)
(-0.00275151 0 -0.0216331)
(-0.00490513 0 -0.0220627)
(-0.00773406 0 -0.021502)
(-0.0101332 0 -0.0188873)
(-0.0105543 0 -0.0151515)
(-0.00951203 0 -0.0126647)
(-0.0082646 0 -0.0111499)
(-0.00704433 0 -0.00988089)
(-0.00571222 0 -0.00889977)
(-0.00435051 0 -0.00819661)
(-0.00309281 0 -0.00780895)
(-0.00206287 0 -0.00761646)
(-0.00127914 0 -0.00757245)
(-0.000712116 0 -0.00758776)
(-0.000672635 0 -0.00755221)
(-0.000360398 0 -0.00761698)
(2.38184e-05 0 -0.00759748)
(0.000477636 0 -0.0146577)
(0.00067551 0 -0.0154957)
(0.000323808 0 -0.0163267)
(8.30541e-05 0 -0.0165144)
(-0.000100027 0 -0.0164099)
(0.000217696 0 -0.016614)
(0.000448649 0 -0.0173796)
(-0.000470287 0 -0.0182658)
(-0.00196068 0 -0.0187818)
(-0.00326178 0 -0.0194618)
(-0.00482262 0 -0.0196771)
(-0.00661558 0 -0.0192026)
(-0.00805409 0 -0.017606)
(-0.00846833 0 -0.015539)
(-0.00788024 0 -0.01378)
(-0.00695383 0 -0.012496)
(-0.00584522 0 -0.0115426)
(-0.00466381 0 -0.0108821)
(-0.00349365 0 -0.0104834)
(-0.00245163 0 -0.010295)
(-0.00161089 0 -0.0103081)
(-0.000957246 0 -0.0103567)
(-0.000414155 0 -0.0103917)
(-0.000155701 0 -0.010568)
(-2.78511e-05 0 -0.0104136)
(3.05537e-05 0 -0.0104742)
(7.04562e-05 0 -0.0146768)
(-3.28725e-05 0 -0.0154522)
(-3.2468e-05 0 -0.0158629)
(8.61386e-05 0 -0.0159114)
(-0.000114454 0 -0.0158032)
(-0.000186009 0 -0.0159425)
(-0.00026502 0 -0.0165597)
(-0.00104374 0 -0.0172438)
(-0.00241686 0 -0.0175033)
(-0.00359169 0 -0.0177285)
(-0.00460526 0 -0.0177113)
(-0.00564923 0 -0.0171399)
(-0.00648425 0 -0.015978)
(-0.00682759 0 -0.0144127)
(-0.00654913 0 -0.0130457)
(-0.00592012 0 -0.0118957)
(-0.0050604 0 -0.0109925)
(-0.00409669 0 -0.0102904)
(-0.00315305 0 -0.00983233)
(-0.00230731 0 -0.00961387)
(-0.00155861 0 -0.00964295)
(-0.000888147 0 -0.00978949)
(-0.000535356 0 -0.00985978)
(-0.000395835 0 -0.0100821)
(-0.000142689 0 -0.0101818)
(-9.47259e-07 0 -0.0102101)
(-0.000213891 0 -0.0149752)
(-0.000412287 0 -0.0154192)
(-0.000120704 0 -0.0154988)
(0.000138264 0 -0.0154698)
(-0.00013246 0 -0.0153946)
(-0.000520814 0 -0.0155057)
(-0.000821629 0 -0.0160045)
(-0.00139162 0 -0.0165676)
(-0.00242704 0 -0.0167859)
(-0.00345085 0 -0.0167029)
(-0.00422532 0 -0.0165322)
(-0.00488202 0 -0.0160293)
(-0.00536933 0 -0.0152292)
(-0.00557962 0 -0.0141422)
(-0.00540254 0 -0.0130501)
(-0.00493721 0 -0.0120494)
(-0.00426461 0 -0.0111823)
(-0.00350315 0 -0.010487)
(-0.0028107 0 -0.0099672)
(-0.00225484 0 -0.00969744)
(-0.00175988 0 -0.00964823)
(-0.00115073 0 -0.0097878)
(-0.000696237 0 -0.00994824)
(-0.000470961 0 -0.0099962)
(-0.0001783 0 -0.0100074)
(-9.87315e-06 0 -0.00998735)
(-0.000311963 0 -0.0149844)
(-0.000489296 0 -0.0151048)
(-7.91402e-05 0 -0.0150606)
(0.000185052 0 -0.0150739)
(-0.000151078 0 -0.0150799)
(-0.000781432 0 -0.0151597)
(-0.00130163 0 -0.0155042)
(-0.00180919 0 -0.0159439)
(-0.00255225 0 -0.0162155)
(-0.00334487 0 -0.0161472)
(-0.00394302 0 -0.015941)
(-0.00436086 0 -0.0155114)
(-0.00461298 0 -0.0148887)
(-0.00466848 0 -0.0140652)
(-0.00447823 0 -0.0131851)
(-0.00408249 0 -0.0123473)
(-0.00353063 0 -0.0116105)
(-0.00290802 0 -0.0110008)
(-0.00235765 0 -0.0105116)
(-0.00196326 0 -0.0101183)
(-0.00163154 0 -0.00988367)
(-0.00117058 0 -0.00977732)
(-0.000731185 0 -0.00981727)
(-0.00045139 0 -0.00980201)
(-0.000166802 0 -0.009778)
(-8.51218e-06 0 -0.00975066)
(-0.000281159 0 -0.0144569)
(-0.000432263 0 -0.0144041)
(-8.79292e-05 0 -0.0144019)
(0.000116915 0 -0.0145526)
(-0.000217518 0 -0.0147072)
(-0.000936041 0 -0.0147967)
(-0.00158993 0 -0.0149559)
(-0.00209396 0 -0.0151626)
(-0.00263539 0 -0.0152765)
(-0.00318835 0 -0.0151251)
(-0.00360663 0 -0.0147944)
(-0.00385173 0 -0.0143015)
(-0.00394739 0 -0.0136818)
(-0.00390236 0 -0.0129537)
(-0.00371085 0 -0.0122075)
(-0.00339102 0 -0.0115288)
(-0.00295729 0 -0.0109725)
(-0.00245159 0 -0.0105436)
(-0.00198584 0 -0.0102238)
(-0.00166453 0 -0.00995551)
(-0.00142385 0 -0.00973192)
(-0.00108602 0 -0.00960111)
(-0.00071604 0 -0.00959276)
(-0.000433158 0 -0.0095846)
(-0.000165376 0 -0.00957206)
(-1.30201e-05 0 -0.00955022)
(-0.000211858 0 -0.0135333)
(-0.000383091 0 -0.013457)
(-0.000221562 0 -0.0135313)
(-0.000114322 0 -0.0138077)
(-0.000389707 0 -0.0141199)
(-0.00102562 0 -0.0142883)
(-0.00166314 0 -0.0143466)
(-0.00212921 0 -0.0143597)
(-0.00252341 0 -0.0142777)
(-0.00288065 0 -0.0140106)
(-0.0031428 0 -0.013585)
(-0.00327476 0 -0.0130446)
(-0.00329338 0 -0.0124352)
(-0.00322225 0 -0.0117877)
(-0.00307816 0 -0.0111591)
(-0.00286981 0 -0.0106114)
(-0.00258099 0 -0.0101937)
(-0.00220486 0 -0.00992425)
(-0.00180726 0 -0.00977206)
(-0.00150258 0 -0.00965942)
(-0.00128846 0 -0.00953546)
(-0.00102571 0 -0.00943726)
(-0.000713279 0 -0.00941842)
(-0.000435961 0 -0.00941532)
(-0.000172909 0 -0.00940516)
(-1.94645e-05 0 -0.00937636)
(-0.000161159 0 -0.0125818)
(-0.00038083 0 -0.0125476)
(-0.000427444 0 -0.0126356)
(-0.000457686 0 -0.012934)
(-0.000685477 0 -0.0133156)
(-0.00115776 0 -0.013567)
(-0.00166232 0 -0.0136307)
(-0.00203196 0 -0.0135786)
(-0.00230017 0 -0.0134199)
(-0.00251342 0 -0.0131301)
(-0.00266231 0 -0.0127247)
(-0.00272807 0 -0.0122472)
(-0.00271905 0 -0.0117378)
(-0.00265532 0 -0.0112227)
(-0.00256076 0 -0.0107284)
(-0.00244516 0 -0.0102856)
(-0.00228311 0 -0.00992958)
(-0.00203953 0 -0.0096901)
(-0.00172903 0 -0.00956391)
(-0.00143815 0 -0.00949697)
(-0.00121309 0 -0.00941778)
(-0.000977005 0 -0.00933257)
(-0.00069871 0 -0.0092899)
(-0.000427757 0 -0.00926624)
(-0.000166791 0 -0.00924075)
(-1.80486e-05 0 -0.00919824)
(-0.000136582 0 -0.0119189)
(-0.000389012 0 -0.0119216)
(-0.000594809 0 -0.0119615)
(-0.000777734 0 -0.012173)
(-0.00100603 0 -0.0124872)
(-0.00133227 0 -0.0127287)
(-0.00167367 0 -0.0128016)
(-0.00192184 0 -0.0127446)
(-0.00208272 0 -0.012588)
(-0.00219775 0 -0.0123416)
(-0.00227546 0 -0.0120228)
(-0.00230613 0 -0.0116652)
(-0.00229064 0 -0.0112963)
(-0.00223775 0 -0.0109318)
(-0.00216703 0 -0.0105778)
(-0.00209404 0 -0.010238)
(-0.00200184 0 -0.00992769)
(-0.0018493 0 -0.00967638)
(-0.0016205 0 -0.00950609)
(-0.0013617 0 -0.00940084)
(-0.0011304 0 -0.00930646)
(-0.000903755 0 -0.00920694)
(-0.000650315 0 -0.00913459)
(-0.000393236 0 -0.00908575)
(-0.000142815 0 -0.00904475)
(-9.526e-06 0 -0.00899316)
(-0.000124673 0 -0.0116122)
(-0.000378477 0 -0.0116323)
(-0.000668796 0 -0.011623)
(-0.000971481 0 -0.0117117)
(-0.00122723 0 -0.0118739)
(-0.00146287 0 -0.012006)
(-0.00167456 0 -0.012026)
(-0.00181886 0 -0.0119439)
(-0.00190082 0 -0.0117896)
(-0.00195523 0 -0.0115803)
(-0.00199492 0 -0.011331)
(-0.00201112 0 -0.0110645)
(-0.00199726 0 -0.0107986)
(-0.00195209 0 -0.0105421)
(-0.00188684 0 -0.0102944)
(-0.00181772 0 -0.0100456)
(-0.00174324 0 -0.0097925)
(-0.00163423 0 -0.00955309)
(-0.00146391 0 -0.00935682)
(-0.00124561 0 -0.00921458)
(-0.00102505 0 -0.00910186)
(-0.000809511 0 -0.00899616)
(-0.000579654 0 -0.00891246)
(-0.000343699 0 -0.00885349)
(-0.000111429 0 -0.00880739)
(1.40519e-06 0 -0.00875326)
(-0.000118628 0 -0.0115014)
(-0.000357567 0 -0.0115348)
(-0.000669079 0 -0.0115135)
(-0.00102429 0 -0.0115103)
(-0.00129407 0 -0.011521)
(-0.00148089 0 -0.0115105)
(-0.00161289 0 -0.0114348)
(-0.00169157 0 -0.0112952)
(-0.00172936 0 -0.0111148)
(-0.00175269 0 -0.010909)
(-0.00177499 0 -0.0106847)
(-0.0017878 0 -0.0104537)
(-0.00177893 0 -0.0102288)
(-0.00174165 0 -0.0100184)
(-0.0016808 0 -0.00982332)
(-0.00160678 0 -0.0096335)
(-0.00152828 0 -0.00943715)
(-0.00143322 0 -0.0092371)
(-0.00129854 0 -0.00905519)
(-0.00111904 0 -0.00890979)
(-0.000921529 0 -0.00879764)
(-0.000721821 0 -0.00870228)
(-0.000513009 0 -0.00862673)
(-0.000298074 0 -0.00857348)
(-8.23571e-05 0 -0.00853319)
(1.16239e-05 0 -0.00848356)
(-0.000120786 0 -0.0113825)
(-0.00034999 0 -0.0114331)
(-0.000642032 0 -0.0114304)
(-0.000980272 0 -0.0113824)
(-0.00122815 0 -0.0112929)
(-0.00137964 0 -0.0111697)
(-0.00146682 0 -0.011006)
(-0.0015114 0 -0.0108082)
(-0.00153201 0 -0.0105925)
(-0.00154638 0 -0.0103714)
(-0.00156413 0 -0.0101469)
(-0.00158038 0 -0.00992162)
(-0.00158352 0 -0.00970223)
(-0.00156226 0 -0.00949968)
(-0.00151204 0 -0.00931846)
(-0.00143867 0 -0.00915344)
(-0.00135611 0 -0.00899448)
(-0.00126464 0 -0.00883475)
(-0.00114995 0 -0.00868377)
(-0.00100085 0 -0.00855593)
(-0.00082912 0 -0.0084565)
(-0.000648178 0 -0.00837679)
(-0.00045802 0 -0.00831517)
(-0.000260733 0 -0.00827186)
(-5.77347e-05 0 -0.00823693)
(2.05077e-05 0 -0.00819316)
(-0.000132761 0 -0.0111435)
(-0.000366021 0 -0.0112093)
(-0.000617342 0 -0.0112255)
(-0.000891936 0 -0.0111607)
(-0.00108739 0 -0.0110248)
(-0.00120108 0 -0.0108435)
(-0.00126021 0 -0.010632)
(-0.00128901 0 -0.0104045)
(-0.00130577 0 -0.0101728)
(-0.0013227 0 -0.00994387)
(-0.00134416 0 -0.0097187)
(-0.00136663 0 -0.00949631)
(-0.00138136 0 -0.00928054)
(-0.00137963 0 -0.00907599)
(-0.00135295 0 -0.00888928)
(-0.00129776 0 -0.00872613)
(-0.00122078 0 -0.00858188)
(-0.00113014 0 -0.00844787)
(-0.00102429 0 -0.00832308)
(-0.000895321 0 -0.00821373)
(-0.000745585 0 -0.00812584)
(-0.000582752 0 -0.0080561)
(-0.000409078 0 -0.00800239)
(-0.000226228 0 -0.00796299)
(-3.6181e-05 0 -0.00792606)
(2.92776e-05 0 -0.00788374)
(-0.000151248 0 -0.0107681)
(-0.000393854 0 -0.010839)
(-0.000593044 0 -0.0108497)
(-0.00078801 0 -0.0107715)
(-0.00092264 0 -0.0106206)
(-0.000999585 0 -0.0104253)
(-0.00103975 0 -0.0102072)
(-0.00106227 0 -0.00998264)
(-0.00107944 0 -0.00976136)
(-0.00109943 0 -0.0095453)
(-0.00112485 0 -0.00933328)
(-0.00115241 0 -0.00912409)
(-0.00117589 0 -0.00891739)
(-0.00118869 0 -0.00871872)
(-0.00118333 0 -0.00853399)
(-0.00115317 0 -0.00836736)
(-0.00109615 0 -0.00822222)
(-0.00101848 0 -0.00809436)
(-0.000924685 0 -0.00797896)
(-0.000810363 0 -0.00787824)
(-0.000675528 0 -0.00779546)
(-0.00052589 0 -0.00772864)
(-0.000364636 0 -0.00767559)
(-0.000192836 0 -0.00763415)
(-1.4163e-05 0 -0.00759485)
(3.78228e-05 0 -0.00755209)
(-0.000169789 0 -0.0102864)
(-0.000411297 0 -0.0103478)
(-0.000550225 0 -0.0103279)
(-0.000672603 0 -0.0102307)
(-0.00075564 0 -0.0100761)
(-0.000805105 0 -0.00988833)
(-0.000835553 0 -0.00968751)
(-0.000859562 0 -0.00948577)
(-0.000882262 0 -0.00928953)
(-0.000906127 0 -0.00909929)
(-0.000932338 0 -0.00891318)
(-0.000959115 0 -0.00872946)
(-0.000983213 0 -0.00854792)
(-0.00100165 0 -0.00836924)
(-0.00100882 0 -0.00819598)
(-0.000997198 0 -0.00803371)
(-0.000960805 0 -0.00788741)
(-0.000901121 0 -0.00775782)
(-0.000822534 0 -0.00764187)
(-0.000723396 0 -0.00753962)
(-0.000603698 0 -0.00745304)
(-0.000467483 0 -0.00738195)
(-0.000317887 0 -0.00732489)
(-0.000157895 0 -0.0072796)
(1.0285e-05 0 -0.00724093)
(4.79004e-05 0 -0.00720058)
(-0.000180702 0 -0.00973725)
(-0.000400905 0 -0.00977505)
(-0.000476424 0 -0.0097162)
(-0.000544746 0 -0.00960062)
(-0.000592765 0 -0.00944774)
(-0.000626841 0 -0.00927571)
(-0.000655425 0 -0.00909948)
(-0.000684197 0 -0.00892619)
(-0.000713696 0 -0.00875827)
(-0.000743181 0 -0.00859544)
(-0.000772917 0 -0.00843599)
(-0.000802011 0 -0.00827871)
(-0.000827605 0 -0.0081234)
(-0.000846487 0 -0.00796997)
(-0.000855063 0 -0.00781957)
(-0.000848651 0 -0.00767492)
(-0.000822592 0 -0.00753837)
(-0.00077632 0 -0.00741182)
(-0.000711045 0 -0.00729606)
(-0.000626013 0 -0.00719198)
(-0.0005215 0 -0.00710178)
(-0.000400018 0 -0.00702637)
(-0.000263956 0 -0.00696565)
(-0.000118762 0 -0.00691807)
(3.40112e-05 0 -0.00687718)
(5.54467e-05 0 -0.00684172)
(-0.000178178 0 -0.00914257)
(-0.000358747 0 -0.00914971)
(-0.000376598 0 -0.009064)
(-0.000410613 0 -0.00894121)
(-0.000439453 0 -0.00879837)
(-0.000467556 0 -0.00864731)
(-0.00049863 0 -0.00849668)
(-0.000532955 0 -0.00834992)
(-0.00056826 0 -0.0082074)
(-0.000602617 0 -0.0080686)
(-0.000636011 0 -0.00793233)
(-0.000668087 0 -0.00779755)
(-0.000696256 0 -0.00766393)
(-0.00071698 0 -0.00753119)
(-0.000727776 0 -0.00739904)
(-0.000725386 0 -0.00726859)
(-0.000705419 0 -0.00714253)
(-0.000665978 0 -0.00702386)
(-0.000607898 0 -0.00691447)
(-0.000532176 0 -0.00681528)
(-0.000439602 0 -0.00672818)
(-0.000331894 0 -0.00665432)
(-0.000211014 0 -0.00659494)
(-8.11333e-05 0 -0.00655153)
(5.3802e-05 0 -0.00651435)
(5.91664e-05 0 -0.00648612)
(-0.000161575 0 -0.00851081)
(-0.000294286 0 -0.00849126)
(-0.000268774 0 -0.00839986)
(-0.000283601 0 -0.00828649)
(-0.000304043 0 -0.00816412)
(-0.000330951 0 -0.00803935)
(-0.000364629 0 -0.00791554)
(-0.000402671 0 -0.00779368)
(-0.000441695 0 -0.00767376)
(-0.000479348 0 -0.00755581)
(-0.000515271 0 -0.00743929)
(-0.000549289 0 -0.00732324)
(-0.000579136 0 -0.00720707)
(-0.00060111 0 -0.00709061)
(-0.000612869 0 -0.00697339)
(-0.000612593 0 -0.00685521)
(-0.000597103 0 -0.00673839)
(-0.000564171 0 -0.00662641)
(-0.000514133 0 -0.00652216)
(-0.000448036 0 -0.00642749)
(-0.000366759 0 -0.00634463)
(-0.000271767 0 -0.00627535)
(-0.000166191 0 -0.00622075)
(-5.21836e-05 0 -0.00618417)
(6.64657e-05 0 -0.00615999)
(5.96348e-05 0 -0.00614444)
(-0.00013572 0 -0.00785333)
(-0.000223452 0 -0.00781922)
(-0.000172528 0 -0.00774064)
(-0.000177801 0 -0.00765042)
(-0.000194977 0 -0.0075567)
(-0.000221392 0 -0.00746198)
(-0.000255326 0 -0.00736648)
(-0.000293841 0 -0.00726989)
(-0.00033375 0 -0.00717245)
(-0.000372561 0 -0.00707483)
(-0.000409227 0 -0.00697709)
(-0.000443256 0 -0.00687835)
(-0.000472801 0 -0.00677771)
(-0.000494497 0 -0.00667507)
(-0.000505857 0 -0.00657076)
(-0.00050593 0 -0.0064649)
(-0.000493066 0 -0.00635902)
(-0.000465554 0 -0.00625577)
(-0.000423319 0 -0.00615832)
(-0.000367159 0 -0.00606955)
(-0.000297953 0 -0.0059923)
(-0.00021653 0 -0.0059291)
(-0.000126198 0 -0.00588127)
(-2.92939e-05 0 -0.0058503)
(7.24336e-05 0 -0.00583607)
(5.72149e-05 0 -0.00582863)
(-0.000107715 0 -0.00719508)
(-0.000160569 0 -0.00715967)
(-0.000100234 0 -0.00710357)
(-0.000101458 0 -0.00704244)
(-0.000116784 0 -0.00697982)
(-0.000141311 0 -0.00691549)
(-0.000172675 0 -0.00684825)
(-0.000208568 0 -0.00677739)
(-0.00024658 0 -0.00670322)
(-0.00028421 0 -0.0066266)
(-0.00031959 0 -0.0065479)
(-0.000351562 0 -0.00646654)
(-0.000378553 0 -0.00638161)
(-0.000398006 0 -0.00629295)
(-0.000407761 0 -0.00620134)
(-0.000407214 0 -0.00610767)
(-0.000395705 0 -0.00601342)
(-0.000372264 0 -0.00592116)
(-0.000336842 0 -0.0058338)
(-0.000290057 0 -0.0057541)
(-0.000232799 0 -0.00568468)
(-0.000165625 0 -0.00562818)
(-9.05015e-05 0 -0.00558685)
(-1.01778e-05 0 -0.00556098)
(7.42745e-05 0 -0.00555259)
(5.33854e-05 0 -0.00554667)
(-8.31991e-05 0 -0.0065683)
(-0.000113554 0 -0.00654029)
(-5.49634e-05 0 -0.00650764)
(-5.50156e-05 0 -0.00647383)
(-6.84173e-05 0 -0.00643901)
(-8.96398e-05 0 -0.00640166)
(-0.000116559 0 -0.00636027)
(-0.000147754 0 -0.00631399)
(-0.000181605 0 -0.00626276)
(-0.000215737 0 -0.00620705)
(-0.000247707 0 -0.00614719)
(-0.000275784 0 -0.00608289)
(-0.000298534 0 -0.00601362)
(-0.000314173 0 -0.00593946)
(-0.000321184 0 -0.00586137)
(-0.000319259 0 -0.00578077)
(-0.000308342 0 -0.00569927)
(-0.000288072 0 -0.00561924)
(-0.000258497 0 -0.0055433)
(-0.000220083 0 -0.00547403)
(-0.000173574 0 -0.00541383)
(-0.000119714 0 -0.00536485)
(-5.93402e-05 0 -0.0053294)
(5.51328e-06 0 -0.00530807)
(7.39106e-05 0 -0.00530154)
(4.95823e-05 0 -0.00529677)
(-6.47064e-05 0 -0.00599948)
(-8.35644e-05 0 -0.00598174)
(-3.28909e-05 0 -0.00596796)
(-3.31695e-05 0 -0.00595497)
(-4.45808e-05 0 -0.00594123)
(-6.2145e-05 0 -0.00592496)
(-8.42153e-05 0 -0.00590481)
(-0.000109941 0 -0.00587979)
(-0.000138217 0 -0.00584921)
(-0.000166946 0 -0.00581279)
(-0.000193568 0 -0.00577053)
(-0.000216133 0 -0.00572236)
(-0.000233416 0 -0.0056682)
(-0.000244312 0 -0.0056085)
(-0.000247968 0 -0.00554444)
(-0.000244348 0 -0.00547768)
(-0.000233696 0 -0.00540994)
(-0.000216003 0 -0.00534333)
(-0.000191368 0 -0.0052801)
(-0.000160171 0 -0.0052224)
(-0.000122908 0 -0.00517228)
(-8.03019e-05 0 -0.00513147)
(-3.27532e-05 0 -0.00510164)
(1.86037e-05 0 -0.00508386)
(7.31442e-05 0 -0.00507772)
(4.6644e-05 0 -0.00507137)
(-5.2169e-05 0 -0.00550228)
(-6.73346e-05 0 -0.00549368)
(-2.6914e-05 0 -0.00549202)
(-2.8162e-05 0 -0.00549205)
(-3.81026e-05 0 -0.00549189)
(-5.27229e-05 0 -0.00548998)
(-7.06852e-05 0 -0.00548515)
(-9.12535e-05 0 -0.00547622)
(-0.000113528 0 -0.00546196)
(-0.000135808 0 -0.00544145)
(-0.000155884 0 -0.00541431)
(-0.000172001 0 -0.00538057)
(-0.000183238 0 -0.00534054)
(-0.000189051 0 -0.00529492)
(-0.000189126 0 -0.00524498)
(-0.00018365 0 -0.00519235)
(-0.000172996 0 -0.00513865)
(-0.000157308 0 -0.00508568)
(-0.000136636 0 -0.00503531)
(-0.000111236 0 -0.00498924)
(-8.14475e-05 0 -0.00494905)
(-4.7783e-05 0 -0.00491618)
(-1.04692e-05 0 -0.00489172)
(2.99462e-05 0 -0.00487679)
(7.3145e-05 0 -0.00487054)
(4.48263e-05 0 -0.00486177)
(-4.42675e-05 0 -0.00507789)
(-6.01031e-05 0 -0.00507575)
(-2.98417e-05 0 -0.00508006)
(-3.26422e-05 0 -0.00508655)
(-4.20491e-05 0 -0.00509367)
(-5.48558e-05 0 -0.00510001)
(-6.9817e-05 0 -0.0051044)
(-8.6062e-05 0 -0.00510556)
(-0.000102726 0 -0.00510208)
(-0.000118542 0 -0.00509276)
(-0.00013192 0 -0.00507705)
(-0.000141586 0 -0.00505504)
(-0.00014699 0 -0.00502723)
(-0.000148 0 -0.00499445)
(-0.000144662 0 -0.00495786)
(-0.000137293 0 -0.00491884)
(-0.000126305 0 -0.00487871)
(-0.000111919 0 -0.00483885)
(-9.41379e-05 0 -0.00480071)
(-7.30454e-05 0 -0.00476566)
(-4.88529e-05 0 -0.00473483)
(-2.18952e-05 0 -0.00470934)
(7.71278e-06 0 -0.00468999)
(3.9785e-05 0 -0.00467772)
(7.42108e-05 0 -0.00467156)
(4.40183e-05 0 -0.00466087)
(-3.94717e-05 0 -0.00471957)
(-5.77067e-05 0 -0.00472128)
(-3.63618e-05 0 -0.00472738)
(-4.1262e-05 0 -0.00473609)
(-5.10113e-05 0 -0.00474606)
(-6.28824e-05 0 -0.00475589)
(-7.56677e-05 0 -0.00476432)
(-8.83994e-05 0 -0.00477011)
(-0.000100261 0 -0.00477202)
(-0.000110398 0 -0.00476901)
(-0.000117865 0 -0.0047606)
(-0.000121948 0 -0.00474697)
(-0.000122445 0 -0.00472868)
(-0.000119487 0 -0.0047065)
(-0.000113307 0 -0.00468141)
(-0.000104256 0 -0.00465442)
(-9.2724e-05 0 -0.00462646)
(-7.8967e-05 0 -0.00459846)
(-6.30165e-05 0 -0.0045714)
(-4.48401e-05 0 -0.00454629)
(-2.45124e-05 0 -0.00452397)
(-2.23934e-06 0 -0.00450525)
(2.1926e-05 0 -0.00449072)
(4.80006e-05 0 -0.0044811)
(7.60291e-05 0 -0.00447547)
(4.39345e-05 0 -0.00446385)
(-3.65545e-05 0 -0.00441696)
(-5.74369e-05 0 -0.00442067)
(-4.34689e-05 0 -0.00442653)
(-5.07878e-05 0 -0.00443512)
(-6.12999e-05 0 -0.00444512)
(-7.25759e-05 0 -0.00445506)
(-8.35536e-05 0 -0.00446372)
(-9.33627e-05 0 -0.00447007)
(-0.00010134 0 -0.00447324)
(-0.000106984 0 -0.00447261)
(-0.000109873 0 -0.00446795)
(-0.000109748 0 -0.00445951)
(-0.000106667 0 -0.00444783)
(-0.00010089 0 -0.00443355)
(-9.27056e-05 0 -0.00441738)
(-8.24254e-05 0 -0.00439999)
(-7.03762e-05 0 -0.00438196)
(-5.68147e-05 0 -0.00436381)
(-4.18405e-05 0 -0.00434607)
(-2.54098e-05 0 -0.0043294)
(-7.50775e-06 0 -0.00431439)
(1.17551e-05 0 -0.00430157)
(3.23754e-05 0 -0.0042914)
(5.44516e-05 0 -0.00428435)
(7.81023e-05 0 -0.00427965)
(4.42568e-05 0 -0.00426806)
(-3.47549e-05 0 -0.00415885)
(-5.79858e-05 0 -0.00416362)
(-4.98452e-05 0 -0.00416861)
(-5.93666e-05 0 -0.00417584)
(-7.04708e-05 0 -0.00418401)
(-8.104e-05 0 -0.00419178)
(-9.03052e-05 0 -0.00419817)
(-9.76632e-05 0 -0.00420251)
(-0.00010268 0 -0.0042044)
(-0.000105129 0 -0.00420362)
(-0.000104917 0 -0.00420022)
(-0.00010207 0 -0.00419451)
(-9.67809e-05 0 -0.00418693)
(-8.93427e-05 0 -0.00417795)
(-8.00251e-05 0 -0.00416801)
(-6.90656e-05 0 -0.00415752)
(-5.67064e-05 0 -0.00414677)
(-4.3181e-05 0 -0.00413598)
(-2.865e-05 0 -0.00412538)
(-1.31221e-05 0 -0.0041153)
(3.43642e-06 0 -0.00410608)
(2.09564e-05 0 -0.00409806)
(3.94661e-05 0 -0.00409156)
(5.90918e-05 0 -0.00408689)
(7.99416e-05 0 -0.00408332)
(4.46909e-05 0 -0.00407253)
(-3.37468e-05 0 -0.00393466)
(-5.89288e-05 0 -0.00394021)
(-5.49391e-05 0 -0.00394417)
(-6.58056e-05 0 -0.00394923)
(-7.68822e-05 0 -0.00395432)
(-8.64456e-05 0 -0.00395853)
(-9.40829e-05 0 -0.0039613)
(-9.94978e-05 0 -0.00396239)
(-0.000102475 0 -0.00396177)
(-0.000102957 0 -0.00395956)
(-0.000101005 0 -0.00395598)
(-9.67571e-05 0 -0.00395133)
(-9.04338e-05 0 -0.00394595)
(-8.22978e-05 0 -0.00394011)
(-7.25736e-05 0 -0.00393405)
(-6.14301e-05 0 -0.00392796)
(-4.90317e-05 0 -0.00392196)
(-3.55742e-05 0 -0.00391609)
(-2.12534e-05 0 -0.0039104)
(-6.14572e-06 0 -0.00390498)
(9.75381e-06 0 -0.00389998)
(2.63731e-05 0 -0.00389559)
(4.37379e-05 0 -0.00389197)
(6.19577e-05 0 -0.00388937)
(8.11293e-05 0 -0.00388708)
(4.49983e-05 0 -0.0038776)
(-3.34431e-05 0 -0.00373503)
(-6.00994e-05 0 -0.00374128)
(-5.83196e-05 0 -0.00374392)
(-6.92806e-05 0 -0.00374622)
(-7.95851e-05 0 -0.00374759)
(-8.79169e-05 0 -0.00374772)
(-9.41524e-05 0 -0.00374653)
(-9.8213e-05 0 -0.00374415)
(-0.00010002 0 -0.00374079)
(-9.95797e-05 0 -0.00373673)
(-9.6981e-05 0 -0.00373227)
(-9.23557e-05 0 -0.00372766)
(-8.58783e-05 0 -0.00372313)
(-7.77502e-05 0 -0.00371881)
(-6.81487e-05 0 -0.00371479)
(-5.72007e-05 0 -0.00371111)
(-4.50185e-05 0 -0.0037078)
(-3.17607e-05 0 -0.00370481)
(-1.763e-05 0 -0.0037021)
(-2.75469e-06 0 -0.00369963)