/*--------------------------------*- C++ -*----------------------------------*\
  =========                 |
  \\      /  F ield         | OpenFOAM: The Open Source CFD Toolbox
   \\    /   O peration     | Website:  https://openfoam.org
    \\  /    A nd           | Version:  7
     \\/     M anipulation  |
\*---------------------------------------------------------------------------*/
FoamFile
{
    version     2.0;
    format      ascii;
    class       volVectorField;
    location    "0.01";
    object      Ur;
}
// * * * * * * * * * * * * * * * * * * * * * * * * * * * * * * * * * * * * * //

dimensions      [0 1 -1 0 0 0 0];

internalField   nonuniform List<vector> 
10790
(
(-0.00299101 0 -0.0153552)
(0.00104543 0 -0.0179541)
(0.00396601 0 -0.0209486)
(-0.000756736 0 -0.0183497)
(-0.00128089 0 -0.0177334)
(-0.000502398 0 -0.0177691)
(0.000136352 0 -0.0174785)
(0.000298868 0 -0.0175894)
(0.000137309 0 -0.0174503)
(1.6541e-05 0 -0.0178224)
(-3.85738e-05 0 -0.0178117)
(-4.39758e-05 0 -0.0177656)
(-1.46453e-05 0 -0.0175615)
(2.97641e-05 0 -0.0177316)
(3.83826e-05 0 -0.0177292)
(-2.15648e-05 0 -0.01766)
(-0.000145485 0 -0.0177818)
(-0.00026174 0 -0.0177466)
(-0.000262437 0 -0.0175741)
(-0.000138794 0 -0.0175244)
(-7.50081e-05 0 -0.017612)
(-8.83845e-05 0 -0.0177793)
(0.000229222 0 -0.0181647)
(0.00102943 0 -0.0191495)
(0.00148666 0 -0.0201489)
(0.000939525 0 -0.0189733)
(-0.00494602 0 0.000526032)
(-0.0043643 0 0.000883806)
(0.00274182 0 -0.0045847)
(0.00238597 0 -0.0041277)
(-0.000211886 0 -0.0031238)
(-0.000274372 0 -0.00238403)
(0.000182449 0 -0.00211066)
(1.38092e-05 0 -0.00231051)
(-5.93152e-05 0 -0.00248735)
(-1.52281e-05 0 -0.00252024)
(-1.56599e-05 0 -0.0025223)
(-2.92695e-05 0 -0.00254179)
(4.75038e-07 0 -0.00252766)
(4.02555e-05 0 -0.00249229)
(2.4955e-05 0 -0.00249667)
(-5.04201e-05 0 -0.00253801)
(-0.000127367 0 -0.0026051)
(-0.000148143 0 -0.00262354)
(-0.000118133 0 -0.00252089)
(-0.000106078 0 -0.00236718)
(-0.000236274 0 -0.0022819)
(-0.000627496 0 -0.00205589)
(-0.00108901 0 -0.00190317)
(-0.000855997 0 -0.00285217)
(0.0017437 0 -0.00489996)
(0.00195481 0 -0.0047277)
(-0.00223641 0 -0.00546856)
(-0.00368917 0 -0.000585951)
(-0.000963653 0 -0.00113021)
(0.000579185 0 -0.00375251)
(0.000384327 0 -0.00453998)
(0.000476117 0 -0.00370567)
(0.000195121 0 -0.00365913)
(-6.0278e-05 0 -0.00372357)
(-7.73907e-05 0 -0.00369167)
(-4.41146e-05 0 -0.00369884)
(-4.69375e-05 0 -0.00374331)
(-2.40332e-05 0 -0.00375199)
(3.92741e-05 0 -0.00373128)
(6.81286e-05 0 -0.00369656)
(-5.58884e-06 0 -0.00367405)
(-0.000150147 0 -0.00370687)
(-0.000234978 0 -0.00377036)
(-0.000156821 0 -0.00381473)
(-1.21516e-05 0 -0.0038027)
(8.23186e-05 0 -0.00381135)
(0.000245642 0 -0.00385796)
(0.000300972 0 -0.00353311)
(-0.000460946 0 -0.00259328)
(-0.00174515 0 -0.00159251)
(-0.000452772 0 -0.00235262)
(0.000719773 0 -0.00417362)
(-0.000255394 0 -0.0067624)
(-0.000159856 0 -0.00438531)
(-0.000305879 0 -0.0028444)
(-0.000946158 0 -0.00345064)
(-0.000152295 0 -0.00359671)
(0.00058386 0 -0.00377919)
(0.000169113 0 -0.00396439)
(-3.82866e-05 0 -0.00392959)
(-5.23844e-05 0 -0.00386625)
(-7.05857e-05 0 -0.0038886)
(-7.16738e-05 0 -0.00392832)
(-9.98346e-06 0 -0.00391109)
(7.11685e-05 0 -0.00389032)
(9.13238e-05 0 -0.0038835)
(5.52116e-06 0 -0.00390025)
(-0.000144335 0 -0.00393219)
(-0.000229743 0 -0.00390671)
(-0.000168049 0 -0.00384614)
(-0.000110763 0 -0.00382126)
(-0.000174371 0 -0.00384913)
(2.61065e-05 0 -0.00405531)
(0.000596661 0 -0.00445641)
(0.000734859 0 -0.00466406)
(-0.0005915 0 -0.003613)
(-0.000704031 0 -0.00268405)
(0.000162591 0 -0.00347255)
(1.57836e-05 0 -0.00430551)
(7.50776e-05 0 -0.00339639)
(-0.000167208 0 -0.0038112)
(-0.000178304 0 -0.00375486)
(0.000182626 0 -0.00279892)
(0.00015579 0 -0.00325443)
(3.84751e-05 0 -0.00345158)
(9.35734e-06 0 -0.00340038)
(-5.24494e-05 0 -0.00339085)
(-0.000102445 0 -0.00343459)
(-6.87325e-05 0 -0.00343982)
(2.23153e-05 0 -0.00339834)
(7.95887e-05 0 -0.00335472)
(4.18034e-05 0 -0.0033545)
(-6.90919e-05 0 -0.00342263)
(-0.000165742 0 -0.0035029)
(-0.00015449 0 -0.0035027)
(-4.61041e-05 0 -0.00345269)
(5.91865e-06 0 -0.00346895)
(-0.00014181 0 -0.00341805)
(-0.000325211 0 -0.00328377)
(-0.000273472 0 -0.00348509)
(0.000321257 0 -0.00399643)
(0.000145015 0 -0.00399586)
(-0.000270476 0 -0.00313175)
(-8.72685e-06 0 -0.00339337)
(0.00066092 0 -0.00410993)
(0.0001132 0 -0.00438881)
(-0.000774736 0 -0.0043155)
(0.000193978 0 -0.00390076)
(0.000406558 0 -0.00392149)
(-5.73529e-05 0 -0.00409393)
(-2.35507e-06 0 -0.00406282)
(5.16507e-06 0 -0.00405513)
(-8.75304e-05 0 -0.00411832)
(-0.00010867 0 -0.0041522)
(-2.28247e-05 0 -0.00410684)
(8.51901e-05 0 -0.00409041)
(0.000114285 0 -0.00405961)
(1.68144e-05 0 -0.00403134)
(-0.000144592 0 -0.00404834)
(-0.000230648 0 -0.00405183)
(-0.000193087 0 -0.00396666)
(-0.000148898 0 -0.00382997)
(-9.59522e-05 0 -0.00378233)
(3.41955e-06 0 -0.00370434)
(-6.00878e-06 0 -0.00348568)
(-5.31304e-05 0 -0.00340959)
(0.000239716 0 -0.00338675)
(0.000208377 0 -0.00376486)
(-0.000132818 0 -0.00346156)
(-8.08047e-05 0 -0.00346466)
(-0.000206137 0 -0.00255439)
(-0.00027154 0 -0.00385429)
(0.000284847 0 -0.00328738)
(0.000411833 0 -0.00254517)
(-2.01132e-05 0 -0.00318686)
(-5.66047e-05 0 -0.00315419)
(3.10815e-05 0 -0.00306929)
(-5.07263e-05 0 -0.00313369)
(-0.000126685 0 -0.00318256)
(-9.09221e-05 0 -0.00315082)
(6.64631e-06 0 -0.00310277)
(9.28186e-05 0 -0.00310832)
(0.000111988 0 -0.00316793)
(3.62182e-05 0 -0.00324656)
(-7.06508e-05 0 -0.00331378)
(-5.24837e-05 0 -0.00334901)
(9.89114e-05 0 -0.00335795)
(0.000145832 0 -0.00335855)
(0.000118925 0 -0.0034049)
(0.000158537 0 -0.00343351)
(-3.57608e-05 0 -0.0032822)
(-0.000158268 0 -0.0033737)
(8.15483e-07 0 -0.00336444)
(2.99538e-05 0 -0.00367763)
(-2.4032e-05 0 -0.00355909)
(-1.97339e-05 0 -0.0034219)
(-0.000746122 0 -0.00310111)
(-0.0006082 0 -0.00285938)
(0.000640764 0 -0.00258835)
(0.00029621 0 -0.00307736)
(-0.000222223 0 -0.0031958)
(1.86496e-05 0 -0.00303088)
(9.30159e-06 0 -0.00308354)
(-9.12953e-05 0 -0.00317865)
(-8.77186e-05 0 -0.00315892)
(-2.16869e-05 0 -0.00306601)
(2.166e-05 0 -0.00299419)
(1.83773e-05 0 -0.00297707)
(-3.38565e-05 0 -0.00300831)
(-0.00014263 0 -0.00306766)
(-0.00026196 0 -0.00311142)
(-0.000276093 0 -0.00311216)
(-0.000182326 0 -0.00314537)
(-0.000182469 0 -0.00323804)
(-0.00017789 0 -0.00333486)
(0.000119364 0 -0.00357574)
(1.21721e-05 0 -0.00357687)
(-0.000203219 0 -0.00351519)
(-5.54255e-05 0 -0.00337147)
(2.69457e-05 0 -0.00343027)
(0.000107186 0 -0.00337974)
(5.78713e-05 0 -0.00330713)
(-7.79673e-06 0 -0.00474479)
(0.000323901 0 -0.00361829)
(0.000179132 0 -0.00336424)
(-0.000254582 0 -0.00445737)
(-6.16411e-05 0 -0.00424156)
(2.85331e-05 0 -0.00418018)
(-8.03373e-05 0 -0.0042438)
(-8.27955e-05 0 -0.0041934)
(4.24966e-06 0 -0.00410129)
(7.1459e-05 0 -0.00402997)
(8.8451e-05 0 -0.0040739)
(7.28078e-05 0 -0.00411085)
(2.23905e-05 0 -0.00408395)
(-6.43002e-05 0 -0.00403379)
(-0.000126563 0 -0.00390084)
(-0.000112033 0 -0.00366856)
(-4.97494e-05 0 -0.00346683)
(-5.75275e-05 0 -0.00344477)
(-0.000258606 0 -0.00326451)
(-8.62646e-05 0 -0.00338483)
(4.61618e-05 0 -0.00349387)
(-9.33333e-07 0 -0.00339164)
(0.000114241 0 -0.00325271)
(9.51559e-05 0 -0.00320031)
(0.000115043 0 -0.00324593)
(5.53497e-05 0 -0.00328883)
(0.000323461 0 -0.00292352)
(0.000553328 0 -0.00271069)
(-0.000179967 0 -0.00328663)
(-0.00035752 0 -0.00323844)
(6.74166e-05 0 -0.00300019)
(-4.02081e-05 0 -0.00314535)
(-9.0778e-05 0 -0.00320588)
(-1.08693e-05 0 -0.00308983)
(3.27117e-05 0 -0.00298991)
(4.10665e-06 0 -0.00303828)
(-8.7793e-06 0 -0.0031829)
(2.68874e-05 0 -0.00331174)
(5.14379e-05 0 -0.00337401)
(3.70947e-05 0 -0.00339875)
(3.81836e-05 0 -0.0034077)
(3.22599e-05 0 -0.00337562)
(-5.9643e-05 0 -0.00327096)
(-2.84082e-05 0 -0.00330779)
(-4.97361e-05 0 -0.00330636)
(1.93652e-05 0 -0.00312288)
(8.00845e-05 0 -0.003191)
(8.22815e-05 0 -0.00318443)
(0.000148797 0 -0.00322083)
(4.73538e-05 0 -0.00323523)
(1.03446e-05 0 -0.00331467)
(2.75679e-06 0 -0.00335961)
(0.000256394 0 -0.0024638)
(-0.000131701 0 -0.00275465)
(-0.000468096 0 -0.0033889)
(-2.20271e-05 0 -0.00284489)
(8.27221e-06 0 -0.00297292)
(-6.5647e-05 0 -0.00307327)
(5.83966e-05 0 -0.0029431)
(0.000147386 0 -0.00277303)
(4.25043e-05 0 -0.00270738)
(-0.000145723 0 -0.00273493)
(-0.000229244 0 -0.00281277)
(-0.000200904 0 -0.0028868)
(-0.000148869 0 -0.00294042)
(-0.000113064 0 -0.00298808)
(-1.58659e-05 0 -0.00305421)
(0.000135014 0 -0.00313835)
(6.35598e-05 0 -0.00310931)
(-8.9937e-05 0 -0.00301726)
(-6.85572e-05 0 -0.00320193)
(3.94746e-05 0 -0.00315786)
(-1.03697e-05 0 -0.00322182)
(-3.63415e-05 0 -0.00327539)
(2.58863e-05 0 -0.00333779)
(-2.88443e-05 0 -0.00330645)
(-5.17078e-05 0 -0.00342732)
(-2.48784e-05 0 -0.0034551)
(-1.50934e-05 0 -0.00341221)
(-0.00048722 0 -0.0042593)
(-0.00031903 0 -0.0037468)
(0.000101474 0 -0.00348883)
(-9.63597e-05 0 -0.00364308)
(1.97009e-05 0 -0.0036025)
(0.000206015 0 -0.00345438)
(0.000211815 0 -0.00339688)
(5.93602e-05 0 -0.00331739)
(-0.000106916 0 -0.00350165)
(-0.000160941 0 -0.0034591)
(-9.96751e-05 0 -0.00320011)
(-5.4446e-05 0 -0.00323184)
(-9.20683e-05 0 -0.00316604)
(-0.000123754 0 -0.00313571)
(-2.20336e-05 0 -0.00322244)
(5.48921e-05 0 -0.00329342)
(-0.00014044 0 -0.00323222)
(-0.00021396 0 -0.00340245)
(-4.60667e-05 0 -0.00350675)
(-8.25843e-05 0 -0.00359347)
(-0.000110585 0 -0.00358644)
(-3.71422e-05 0 -0.00363118)
(-3.78267e-05 0 -0.00362727)
(-4.16863e-05 0 -0.00359824)
(-1.9327e-05 0 -0.00354728)
(-0.000437995 0 -0.00432494)
(-0.000369983 0 -0.004667)
(0.000109992 0 -0.00382038)
(-5.64301e-05 0 -0.00404574)
(-6.63608e-05 0 -0.00398957)
(0.000150164 0 -0.00379421)
(0.000191769 0 -0.0037757)
(5.4207e-05 0 -0.00393252)
(-9.75851e-05 0 -0.00417408)
(-0.000145046 0 -0.00434252)
(-6.81213e-05 0 -0.0043593)
(6.97988e-05 0 -0.00419636)
(0.000112422 0 -0.00409686)
(1.39536e-05 0 -0.00396225)
(-0.000131424 0 -0.00388498)
(-0.000185314 0 -0.0038767)
(-3.24364e-05 0 -0.0040195)
(-0.000118263 0 -0.00393355)
(-0.000225786 0 -0.00387052)
(-3.78654e-05 0 -0.00382074)
(-2.6396e-05 0 -0.00378118)
(-5.44357e-05 0 -0.0036874)
(-5.01801e-06 0 -0.00364655)
(-5.3636e-06 0 -0.00360302)
(-1.82285e-05 0 -0.00356132)
(-8.64355e-06 0 -0.00350357)
(-0.000345188 0 -0.00465393)
(-5.51249e-05 0 -0.00393582)
(0.000188855 0 -0.00393372)
(-8.58694e-05 0 -0.00404094)
(0.000151828 0 -0.00381445)
(0.000229022 0 -0.00372031)
(7.23822e-05 0 -0.00382806)
(-0.000146641 0 -0.00396506)
(-0.000303873 0 -0.00406626)
(-0.000290807 0 -0.00415009)
(-9.33644e-05 0 -0.00419693)
(0.000126878 0 -0.00419555)
(0.000189452 0 -0.00420451)
(9.82707e-05 0 -0.00412468)
(-5.30469e-05 0 -0.00399591)
(-0.000157696 0 -0.00386224)
(-1.18979e-05 0 -0.00393883)
(-3.81056e-06 0 -0.00387467)
(-0.000106717 0 -0.00367837)
(2.47805e-05 0 -0.00359734)
(4.28727e-05 0 -0.00356322)
(2.52886e-06 0 -0.00351516)
(1.02774e-05 0 -0.00349347)
(3.10823e-06 0 -0.00345582)
(-1.52144e-06 0 -0.00346818)
(8.34956e-07 0 -0.00344619)
(0.000202229 0 -0.00358866)
(0.00024247 0 -0.0031035)
(-4.02133e-05 0 -0.00354831)
(5.33383e-05 0 -0.00334682)
(0.000249587 0 -0.00323629)
(0.000166329 0 -0.00320597)
(4.67809e-06 0 -0.00352272)
(-0.000148702 0 -0.00352311)
(-0.000258505 0 -0.00332357)
(-0.000269029 0 -0.00317454)
(-0.00013402 0 -0.00315359)
(6.98487e-05 0 -0.00317352)
(0.000191543 0 -0.00333352)
(0.00015563 0 -0.00339891)
(4.51127e-06 0 -0.00333277)
(-0.000111554 0 -0.0032605)
(3.68492e-05 0 -0.00330995)
(9.53512e-05 0 -0.00337601)
(-1.43418e-06 0 -0.00326269)
(4.07191e-05 0 -0.00323988)
(3.70867e-05 0 -0.00329562)
(-2.54437e-08 0 -0.00330663)
(-8.9878e-06 0 -0.00332781)
(-7.65991e-06 0 -0.00336492)
(-3.8648e-07 0 -0.00338953)
(3.58411e-06 0 -0.0034183)
(0.000394743 0 -0.00248831)
(0.000236545 0 -0.00264053)
(-0.000105735 0 -0.00267776)
(0.00011575 0 -0.00248376)
(2.60737e-05 0 -0.002686)
(-8.34574e-05 0 -0.00297462)
(-6.06558e-05 0 -0.00312769)
(-1.73772e-05 0 -0.00310445)
(-1.81933e-05 0 -0.00294304)
(-7.03388e-05 0 -0.00272642)
(-0.000110194 0 -0.00258788)
(-5.90489e-05 0 -0.00263444)
(5.77889e-05 0 -0.0028172)
(0.000105988 0 -0.0029601)
(-2.182e-05 0 -0.00299153)
(-0.00015829 0 -0.00302178)
(-3.24497e-05 0 -0.00305801)
(5.137e-05 0 -0.00312394)
(-2.91972e-05 0 -0.00306765)
(-9.46478e-06 0 -0.00290416)
(5.71046e-06 0 -0.00321511)
(-2.57254e-05 0 -0.00329352)
(-3.89166e-05 0 -0.00335844)
(-3.1616e-05 0 -0.00342127)
(-1.88616e-05 0 -0.00347079)
(-6.41773e-06 0 -0.00351)
(6.83414e-05 0 -0.00249184)
(3.65408e-05 0 -0.00289037)
(5.70253e-05 0 -0.00268225)
(-1.36921e-05 0 -0.00279938)
(-0.000291084 0 -0.003092)
(-0.000310605 0 -0.00323609)
(-0.000125937 0 -0.00325944)
(7.21235e-05 0 -0.00320308)
(0.000164621 0 -0.00311)
(0.000114404 0 -0.00291625)
(-2.88278e-05 0 -0.00275574)
(-0.000158556 0 -0.00277502)
(-0.00014705 0 -0.00290047)
(-4.37796e-05 0 -0.00302845)
(-8.32307e-05 0 -0.00299067)
(-0.000203879 0 -0.00300326)
(-0.000121374 0 -0.00310154)
(-3.04509e-05 0 -0.00323594)
(-8.49069e-05 0 -0.00328175)
(-6.98705e-05 0 -0.00333024)
(-3.76841e-05 0 -0.00340762)
(-6.34696e-05 0 -0.00346792)
(-7.87902e-05 0 -0.00351932)
(-7.44919e-05 0 -0.00357237)
(-6.29615e-05 0 -0.00362255)
(-2.90617e-05 0 -0.0036529)
(-0.000123539 0 -0.00387265)
(-9.14196e-06 0 -0.00402722)
(8.96864e-05 0 -0.00398246)
(-0.000238163 0 -0.00425486)
(-0.000396776 0 -0.00430329)
(-0.000271049 0 -0.00413286)
(-6.88075e-05 0 -0.00393917)
(9.69051e-05 0 -0.00388268)
(0.000191883 0 -0.00393215)
(0.000193217 0 -0.00394804)
(6.69249e-05 0 -0.0038591)
(-0.000140358 0 -0.003712)
(-0.000233029 0 -0.00367899)
(-0.00012702 0 -0.00371398)
(-8.56214e-05 0 -0.00372037)
(-0.000169193 0 -0.00365875)
(-0.000126656 0 -0.00359955)
(-4.91216e-05 0 -0.00362556)
(-7.81494e-05 0 -0.00362596)
(-0.00010091 0 -0.00362163)
(-0.000100766 0 -0.00367042)
(-0.000114427 0 -0.00371635)
(-0.000124134 0 -0.00375506)
(-0.000118516 0 -0.00378756)
(-0.000102341 0 -0.00381238)
(-4.6732e-05 0 -0.00381114)
(-2.22622e-05 0 -0.00479612)
(7.9621e-06 0 -0.00464238)
(-0.000148005 0 -0.00491908)
(-0.000339629 0 -0.00506634)
(-0.000200957 0 -0.00484179)
(-4.26816e-06 0 -0.00451717)
(8.17257e-05 0 -0.00427643)
(9.61021e-05 0 -0.00426053)
(0.000119137 0 -0.00438034)
(0.000167993 0 -0.00450695)
(0.000143868 0 -0.00452698)
(-2.18594e-05 0 -0.00440346)
(-0.000156949 0 -0.00424022)
(-8.26162e-05 0 -0.00413535)
(-7.92032e-06 0 -0.004099)
(-6.95123e-05 0 -0.00403126)
(-8.06274e-05 0 -0.00395315)
(-4.67383e-05 0 -0.00394915)
(-7.14719e-05 0 -0.00395273)
(-0.000109789 0 -0.00394514)
(-0.000131012 0 -0.00395591)
(-0.000145972 0 -0.00396879)
(-0.00014849 0 -0.00397317)
(-0.000133592 0 -0.00396355)
(-0.000106126 0 -0.00394543)
(-4.51798e-05 0 -0.00390063)
(4.19353e-05 0 -0.00459974)
(-0.000115053 0 -0.00466315)
(-0.000341414 0 -0.00483201)
(-0.000195463 0 -0.00465328)
(9.48992e-05 0 -0.00434406)
(0.000221384 0 -0.00414205)
(0.000161806 0 -0.00403967)
(4.10161e-05 0 -0.00413813)
(-1.37785e-05 0 -0.00427336)
(5.63308e-05 0 -0.00443526)
(0.000148619 0 -0.00453265)
(9.50101e-05 0 -0.00448994)
(-3.13882e-05 0 -0.00435464)
(-9.4624e-06 0 -0.00425951)
(5.58581e-05 0 -0.00422537)
(1.06789e-05 0 -0.00416528)
(-3.25244e-05 0 -0.00413964)
(-4.18128e-05 0 -0.00414261)
(-7.05497e-05 0 -0.00414795)
(-0.000107586 0 -0.00413926)
(-0.000130888 0 -0.00412525)
(-0.00013974 0 -0.00410251)
(-0.000131771 0 -0.00406579)
(-0.000107183 0 -0.00401819)
(-7.02535e-05 0 -0.00396327)
(-2.46012e-05 0 -0.00388679)
(-8.55298e-05 0 -0.00428569)
(-0.000247229 0 -0.00449)
(-0.000186107 0 -0.00426417)
(9.99448e-05 0 -0.0039075)
(0.000272258 0 -0.00371191)
(0.000244716 0 -0.00373141)
(9.44445e-05 0 -0.00383682)
(-6.51777e-05 0 -0.00392977)
(-0.000135084 0 -0.00401597)
(-6.8164e-05 0 -0.00411197)
(8.45183e-05 0 -0.00420892)
(0.00012906 0 -0.00424062)
(3.72858e-05 0 -0.0041807)
(1.15036e-05 0 -0.00414996)
(5.4095e-05 0 -0.00417823)
(2.80739e-05 0 -0.00417932)
(-2.00262e-05 0 -0.00410586)
(-4.2124e-05 0 -0.00416009)
(-6.4478e-05 0 -0.00416508)
(-8.89309e-05 0 -0.0041455)
(-0.000100935 0 -0.00410935)
(-9.80897e-05 0 -0.00405007)
(-8.31742e-05 0 -0.00399879)
(-5.79626e-05 0 -0.00397468)
(-2.42307e-05 0 -0.00394384)
(-2.75328e-06 0 -0.00390458)
(-0.000167466 0 -0.0043166)
(-0.000128081 0 -0.0042594)
(0.000206236 0 -0.00382641)
(0.000330234 0 -0.00352921)
(0.000235046 0 -0.00348598)
(5.57801e-05 0 -0.00359133)
(-5.67252e-05 0 -0.00348669)
(-0.000109013 0 -0.00371502)
(-0.000138937 0 -0.00372466)
(-9.61764e-05 0 -0.0037687)
(3.23752e-05 0 -0.00381063)
(0.000111311 0 -0.0038677)
(4.11757e-05 0 -0.00389303)
(-1.97848e-05 0 -0.0039259)
(6.51222e-06 0 -0.00395849)
(3.07797e-06 0 -0.00397116)
(-2.35193e-05 0 -0.00390599)
(-3.73083e-05 0 -0.00399664)
(-4.70903e-05 0 -0.00402158)
(-5.65411e-05 0 -0.00401583)
(-5.91778e-05 0 -0.00399527)
(-5.27351e-05 0 -0.0039672)
(-3.9267e-05 0 -0.00394258)
(-2.13967e-05 0 -0.00392414)
(-2.63796e-06 0 -0.00391745)
(3.219e-06 0 -0.00391214)
(-1.57673e-05 0 -0.00426242)
(0.000221219 0 -0.00383385)
(0.000471374 0 -0.00367603)
(0.000355903 0 -0.00368608)
(9.86637e-05 0 -0.00380762)
(-0.000124369 0 -0.00394232)
(-0.000143669 0 -0.0040061)
(-6.32515e-05 0 -0.00394804)
(-4.04733e-05 0 -0.00385879)
(-3.52289e-05 0 -0.00373454)
(1.43945e-05 0 -0.00367339)
(5.65002e-05 0 -0.0036748)
(1.97185e-05 0 -0.00346539)
(-2.75133e-05 0 -0.00372323)
(-2.65967e-05 0 -0.00378993)
(-2.15515e-05 0 -0.00384468)
(-2.85262e-05 0 -0.00386761)
(-3.18921e-05 0 -0.00387916)
(-3.32766e-05 0 -0.003877)
(-3.58342e-05 0 -0.00387566)
(-3.66104e-05 0 -0.0038605)
(-3.35279e-05 0 -0.00382185)
(-2.7548e-05 0 -0.00387005)
(-2.2227e-05 0 -0.00389705)
(-1.87706e-05 0 -0.00393004)
(-8.75786e-06 0 -0.00395278)
(0.000230318 0 -0.0037066)
(0.00045738 0 -0.00345195)
(0.000373238 0 -0.00355019)
(0.000208673 0 -0.00389412)
(-8.02728e-06 0 -0.00405773)
(-0.000144223 0 -0.00407426)
(-9.46979e-05 0 -0.00397396)
(3.62997e-05 0 -0.003797)
(8.92284e-05 0 -0.00368646)
(5.68381e-05 0 -0.00355835)
(2.68061e-05 0 -0.00352643)
(8.09207e-06 0 -0.00359318)
(-1.08014e-05 0 -0.00366981)
(-3.29763e-05 0 -0.00371782)
(-4.77165e-05 0 -0.00375982)
(-4.15864e-05 0 -0.00380123)
(-3.87836e-05 0 -0.00382928)
(-3.76433e-05 0 -0.00385019)
(-3.90209e-05 0 -0.00386762)
(-4.36422e-05 0 -0.00389456)
(-4.78842e-05 0 -0.00391992)
(-5.1153e-05 0 -0.00394849)
(-5.3804e-05 0 -0.00398634)
(-5.72697e-05 0 -0.00402926)
(-5.80589e-05 0 -0.00407552)
(-2.84831e-05 0 -0.00410061)
(0.000307784 0 -0.00354975)
(0.000343559 0 -0.00370103)
(5.99357e-05 0 -0.00409002)
(1.89938e-05 0 -0.00433005)
(-4.747e-05 0 -0.00440516)
(-6.4047e-05 0 -0.00432449)
(2.82545e-05 0 -0.0041719)
(0.000153723 0 -0.00403017)
(0.000189699 0 -0.00395089)
(0.000123957 0 -0.0039213)
(4.21584e-05 0 -0.00391398)
(-8.30191e-06 0 -0.00394033)
(-4.35376e-05 0 -0.00397029)
(-6.9388e-05 0 -0.0040056)
(-7.4623e-05 0 -0.00402374)
(-6.39846e-05 0 -0.00403936)
(-5.75625e-05 0 -0.00405296)
(-5.82842e-05 0 -0.00406869)
(-6.48525e-05 0 -0.0040919)
(-7.45678e-05 0 -0.00412032)
(-8.34357e-05 0 -0.00415372)
(-9.06835e-05 0 -0.00419072)
(-9.62194e-05 0 -0.00422954)
(-9.95011e-05 0 -0.00426743)
(-9.40722e-05 0 -0.00429962)
(-4.40958e-05 0 -0.00430637)
(0.000113284 0 -0.00398548)
(-3.12927e-05 0 -0.00448013)
(-0.000207684 0 -0.00467747)
(-7.95491e-05 0 -0.00475494)
(-2.1835e-06 0 -0.00472275)
(6.62388e-05 0 -0.00459603)
(0.000153052 0 -0.00445456)
(0.000222582 0 -0.00437305)
(0.000211467 0 -0.00433599)
(0.000118304 0 -0.00437938)
(1.48516e-05 0 -0.00442919)
(-4.52656e-05 0 -0.00446866)
(-7.41684e-05 0 -0.0044931)
(-8.54083e-05 0 -0.00449688)
(-8.14092e-05 0 -0.00448323)
(-7.06256e-05 0 -0.0044667)
(-6.72278e-05 0 -0.00445537)
(-7.44335e-05 0 -0.00445099)
(-8.7867e-05 0 -0.00445684)
(-0.000102032 0 -0.00446858)
(-0.000113796 0 -0.0044828)
(-0.000121598 0 -0.00449808)
(-0.000124044 0 -0.00451221)
(-0.000119656 0 -0.00451981)
(-0.000106928 0 -0.00452063)
(-4.94147e-05 0 -0.00449849)
(-0.000153411 0 -0.00499294)
(-0.000317464 0 -0.00540221)
(-0.00020769 0 -0.00527523)
(-1.75209e-05 0 -0.00519414)
(0.000107759 0 -0.00511121)
(0.000188808 0 -0.0050107)
(0.000224832 0 -0.00494211)
(0.000220223 0 -0.00493869)
(0.000168575 0 -0.004981)
(7.31495e-05 0 -0.00501122)
(-1.4094e-05 0 -0.00497705)
(-5.68403e-05 0 -0.00504071)
(-6.55333e-05 0 -0.00503042)
(-5.82401e-05 0 -0.00498619)
(-4.64939e-05 0 -0.00493534)
(-3.94077e-05 0 -0.00488184)
(-4.49628e-05 0 -0.00483688)
(-6.19521e-05 0 -0.00480224)
(-8.3664e-05 0 -0.00477793)
(-0.000100952 0 -0.00476033)
(-0.000112514 0 -0.00474392)
(-0.000119376 0 -0.00472794)
(-0.000118157 0 -0.00470991)
(-0.000106831 0 -0.00468332)
(-9.07484e-05 0 -0.00465859)
(-4.16755e-05 0 -0.00460272)
(-0.000261456 0 -0.00575383)
(-0.000293805 0 -0.00578099)
(3.44574e-06 0 -0.00547783)
(0.000109825 0 -0.00529728)
(0.000195205 0 -0.00529008)
(0.000241012 0 -0.00529262)
(0.000219723 0 -0.005321)
(0.000163089 0 -0.00538435)
(9.75403e-05 0 -0.0054575)
(3.34639e-05 0 -0.00549973)
(-1.0277e-05 0 -0.00548019)
(-1.90285e-05 0 -0.00542788)
(-2.5848e-06 0 -0.00532057)
(1.7546e-05 0 -0.00504694)
(3.09199e-05 0 -0.00513477)
(2.90444e-05 0 -0.00507423)
(1.27933e-05 0 -0.00501505)
(-1.46727e-05 0 -0.00496158)
(-4.47115e-05 0 -0.00491345)
(-6.60762e-05 0 -0.00486928)
(-7.93308e-05 0 -0.00483436)
(-8.70921e-05 0 -0.00479945)
(-8.44699e-05 0 -0.00476308)
(-7.41119e-05 0 -0.0047243)
(-5.72486e-05 0 -0.00468978)
(-2.34363e-05 0 -0.00461999)
(-0.000151046 0 -0.00571726)
(-4.68187e-05 0 -0.00539679)
(0.000191965 0 -0.00519604)
(0.000173523 0 -0.00512738)
(0.000181699 0 -0.00509211)
(0.000187811 0 -0.00524155)
(0.000147789 0 -0.00534702)
(8.7483e-05 0 -0.00543707)
(4.38954e-05 0 -0.00550241)
(2.65781e-05 0 -0.00552346)
(3.07652e-05 0 -0.00548769)
(5.90967e-05 0 -0.00542347)
(9.8145e-05 0 -0.00532524)
(0.000124115 0 -0.00521642)
(0.000127853 0 -0.00512108)
(0.000110896 0 -0.00502876)
(8.10667e-05 0 -0.00493906)
(4.52347e-05 0 -0.00480743)
(1.24638e-05 0 -0.00481499)
(-1.7518e-05 0 -0.00479257)
(-3.94401e-05 0 -0.00476293)
(-4.92644e-05 0 -0.00472941)
(-4.5924e-05 0 -0.00469339)
(-3.85683e-05 0 -0.00466631)
(-2.54193e-05 0 -0.00463961)
(-7.64741e-06 0 -0.00458145)
(3.86415e-05 0 -0.00497224)
(0.000165956 0 -0.00466052)
(0.000187437 0 -0.00469222)
(0.000104345 0 -0.00478058)
(8.19111e-05 0 -0.00484612)
(7.74039e-05 0 -0.00498311)
(5.97857e-05 0 -0.00511799)
(3.30436e-05 0 -0.00520167)
(3.11996e-05 0 -0.00523812)
(5.87213e-05 0 -0.00523016)
(0.000100619 0 -0.00518264)
(0.000148548 0 -0.00511044)
(0.000190074 0 -0.00503555)
(0.000207363 0 -0.00496662)
(0.000198311 0 -0.00490921)
(0.000168967 0 -0.0048623)
(0.000128698 0 -0.00482357)
(8.78316e-05 0 -0.00478764)
(5.16097e-05 0 -0.00475501)
(1.78086e-05 0 -0.00471856)
(-7.02075e-06 0 -0.00467516)
(-1.66449e-05 0 -0.00462599)
(-1.58004e-05 0 -0.00456745)
(-8.14758e-06 0 -0.00447364)
(3.06766e-06 0 -0.00449418)
(3.86363e-06 0 -0.00446048)
(0.000133027 0 -0.00420491)
(0.000185097 0 -0.00419722)
(2.70946e-05 0 -0.00437575)
(-5.07713e-05 0 -0.00452106)
(-4.67583e-05 0 -0.0046093)
(-2.71179e-05 0 -0.00466428)
(-1.19816e-05 0 -0.00478732)
(4.34275e-06 0 -0.00484042)
(4.21642e-05 0 -0.00484885)
(0.000100237 0 -0.00482786)
(0.000162544 0 -0.00478947)
(0.000213083 0 -0.00474371)
(0.000242174 0 -0.00470911)
(0.000244477 0 -0.00468847)
(0.000222568 0 -0.00467981)
(0.000184835 0 -0.00467815)
(0.000140842 0 -0.00467808)
(9.89491e-05 0 -0.00467487)
(6.41287e-05 0 -0.00466694)
(3.81905e-05 0 -0.00465167)
(2.27051e-05 0 -0.00462251)
(1.80725e-05 0 -0.00458611)
(1.85881e-05 0 -0.00454499)
(2.71491e-05 0 -0.00450223)
(3.84301e-05 0 -0.00445717)
(2.06264e-05 0 -0.00439431)
(7.1875e-05 0 -0.00395629)
(7.336e-06 0 -0.00419953)
(-0.000161998 0 -0.00437926)
(-0.000169532 0 -0.00445366)
(-0.000121178 0 -0.00446848)
(-7.49093e-05 0 -0.00442427)
(-3.62571e-05 0 -0.00450045)
(7.93183e-06 0 -0.0045075)
(6.55587e-05 0 -0.00449016)
(0.000130819 0 -0.00446608)
(0.000189885 0 -0.00444679)
(0.000229657 0 -0.00443863)
(0.000244406 0 -0.00444556)
(0.000234395 0 -0.00446538)
(0.00020609 0 -0.00449131)
(0.000168348 0 -0.00451586)
(0.00012963 0 -0.00453269)
(9.63862e-05 0 -0.00453795)
(7.17455e-05 0 -0.00453011)
(5.70944e-05 0 -0.0045094)
(5.17239e-05 0 -0.00447644)
(5.44952e-05 0 -0.00443475)
(6.03515e-05 0 -0.00438756)
(6.94954e-05 0 -0.00433554)
(8.04857e-05 0 -0.00428566)
(4.22897e-05 0 -0.00421368)
(-8.01488e-05 0 -0.00416639)
(-0.000225284 0 -0.00446525)
(-0.000254574 0 -0.00451352)
(-0.000176208 0 -0.00446725)
(-0.000101442 0 -0.00438886)
(-4.78082e-05 0 -0.00427898)
(-3.49155e-06 0 -0.00429426)
(4.70262e-05 0 -0.00426345)
(0.000101919 0 -0.00422803)
(0.000154625 0 -0.00420614)
(0.000196106 0 -0.00420216)
(0.00021777 0 -0.00421491)
(0.000217974 0 -0.00424184)
(0.000200649 0 -0.00427621)
(0.000173295 0 -0.00430936)
(0.000143752 0 -0.00433395)
(0.000117984 0 -0.00434435)
(9.96929e-05 0 -0.00433824)
(8.9867e-05 0 -0.0043154)
(8.80961e-05 0 -0.00427775)
(9.27965e-05 0 -0.00422886)
(0.000102012 0 -0.00417252)
(0.000112331 0 -0.00411387)
(0.000121673 0 -0.00405295)
(0.00013085 0 -0.00399644)
(6.75804e-05 0 -0.00392425)
(-0.000204574 0 -0.00436639)
(-0.000339779 0 -0.00454243)
(-0.000200368 0 -0.00442976)
(-8.51161e-05 0 -0.00429023)
(-1.39086e-05 0 -0.0041591)
(2.56766e-05 0 -0.00404721)
(6.07455e-05 0 -0.00403062)
(0.000102133 0 -0.00399654)
(0.000139194 0 -0.00396933)
(0.000167629 0 -0.00395555)
(0.000188957 0 -0.00395807)
(0.000195917 0 -0.00397519)
(0.000187756 0 -0.00400125)
(0.000170373 0 -0.00402809)
(0.000150592 0 -0.00404766)
(0.000134167 0 -0.00405434)
(0.000124613 0 -0.00404477)
(0.000123064 0 -0.00401832)
(0.000128502 0 -0.00397646)
(0.00013865 0 -0.00392201)
(0.000150985 0 -0.0038594)
(0.000162797 0 -0.00379315)
(0.000172782 0 -0.00372883)
(0.000179529 0 -0.00366742)
(0.000181909 0 -0.00361165)
(9.08584e-05 0 -0.00355072)
(-0.000238509 0 -0.00401027)
(-0.000298816 0 -0.00392611)
(-4.80455e-05 0 -0.00356629)
(5.01832e-05 0 -0.00357636)
(8.10595e-05 0 -0.00349642)
(8.94955e-05 0 -0.00346294)
(0.000103627 0 -0.00343437)
(0.000127711 0 -0.0034041)
(0.000152075 0 -0.00333859)
(0.000172939 0 -0.00337921)
(0.00018267 0 -0.00344251)
(0.000179886 0 -0.00348823)
(0.000169694 0 -0.00352654)
(0.000157925 0 -0.00355443)
(0.00014944 0 -0.00356796)
(0.000147408 0 -0.00356481)
(0.000152915 0 -0.00354487)
(0.000165011 0 -0.00350991)
(0.000181392 0 -0.00346317)
(0.000198846 0 -0.00340829)
(0.000214154 0 -0.00334951)
(0.000224253 0 -0.00329109)
(0.000229159 0 -0.00323729)
(0.000229637 0 -0.00319026)
(0.000222374 0 -0.00315174)
(0.000107841 0 -0.00311158)
(-0.000175092 0 -0.00333006)
(-0.000154005 0 -0.00312979)
(9.35825e-05 0 -0.00296477)
(0.000140901 0 -0.002895)
(0.000125639 0 -0.00286432)
(0.000110696 0 -0.00288427)
(0.00011193 0 -0.00290923)
(0.000126894 0 -0.00293078)
(0.000150126 0 -0.00295385)
(0.000170365 0 -0.00298051)
(0.000174583 0 -0.00300924)
(0.000169122 0 -0.00303613)
(0.000162658 0 -0.00305627)
(0.000160016 0 -0.00306522)
(0.000163914 0 -0.00306031)
(0.00017504 0 -0.00304094)
(0.000192321 0 -0.00300869)
(0.000213318 0 -0.00296662)
(0.000235028 0 -0.00291868)
(0.000254155 0 -0.00286876)
(0.000267546 0 -0.00282034)
(0.000272436 0 -0.00277654)
(0.000269494 0 -0.00273975)
(0.000259831 0 -0.00271145)
(0.000242464 0 -0.00269461)
(0.000115578 0 -0.00267799)
(-3.95081e-05 0 -0.00228534)
(4.01712e-05 0 -0.00204107)
(0.000153181 0 -0.00198228)
(0.000126268 0 -0.00201802)
(8.75963e-05 0 -0.00207039)
(7.35684e-05 0 -0.00214053)
(7.97913e-05 0 -0.002194)
(9.73241e-05 0 -0.00223865)
(0.000116262 0 -0.00227974)
(0.000130037 0 -0.00232605)
(0.000135903 0 -0.00237218)
(0.000138453 0 -0.00241119)
(0.00014342 0 -0.00243949)
(0.000154212 0 -0.00245505)
(0.000171873 0 -0.00245758)
(0.000195352 0 -0.00244826)
(0.000222091 0 -0.00242969)
(0.000248785 0 -0.00240541)
(0.000272267 0 -0.00237931)
(0.000289732 0 -0.002355)
(0.000298691 0 -0.00233502)
(0.000297114 0 -0.00232115)
(0.00028659 0 -0.0023144)
(0.000267349 0 -0.00231489)
(0.000240919 0 -0.00232342)
(0.000113053 0 -0.00233249)
(6.64813e-05 0 -0.0013656)
(0.000139893 0 -0.00123384)
(0.00010651 0 -0.00130087)
(4.21257e-05 0 -0.00140088)
(7.31072e-06 0 -0.00149228)
(5.10486e-06 0 -0.00156193)
(2.3633e-05 0 -0.00161886)
(4.73395e-05 0 -0.0016678)
(6.75338e-05 0 -0.00171433)
(8.19845e-05 0 -0.00176129)
(9.2704e-05 0 -0.00180563)
(0.000104135 0 -0.00184308)
(0.000120078 0 -0.00187117)
(0.000142151 0 -0.00188932)
(0.00016995 0 -0.0018986)
(0.000201378 0 -0.00190099)
(0.000233102 0 -0.00189899)
(0.000261409 0 -0.00189544)
(0.00028323 0 -0.00189326)
(0.000296552 0 -0.00189496)
(0.000299959 0 -0.00190181)
(0.000292113 0 -0.00191399)
(0.000275228 0 -0.00193142)
(0.000250669 0 -0.00195386)
(0.000218528 0 -0.00197784)
(0.000100099 0 -0.00199998)
(9.01726e-05 0 -0.000890934)
(0.00011129 0 -0.000915613)
(-1.56331e-06 0 -0.00105198)
(-5.88673e-05 0 -0.00116613)
(-7.20057e-05 0 -0.00121431)
(-5.33239e-05 0 -0.00125706)
(-2.35301e-05 0 -0.00128827)
(3.70389e-06 0 -0.00131673)
(2.43876e-05 0 -0.00134688)
(4.01518e-05 0 -0.00137866)
(5.51629e-05 0 -0.00140912)
(7.33992e-05 0 -0.00143523)
(9.69397e-05 0 -0.00145561)
(0.000125749 0 -0.00147073)
(0.000158418 0 -0.00148225)
(0.000192543 0 -0.00149227)
(0.000224773 0 -0.00150267)
(0.00025142 0 -0.0015151)
(0.000269652 0 -0.00153105)
(0.000278282 0 -0.00155162)
(0.00027707 0 -0.00157671)
(0.000265257 0 -0.00160526)
(0.000244822 0 -0.00163616)
(0.000219284 0 -0.00166848)
(0.000187537 0 -0.00169875)
(8.44609e-05 0 -0.00172496)
(4.19851e-05 0 -0.000902876)
(5.84525e-07 0 -0.0010338)
(-0.000104763 0 -0.00114563)
(-0.000127535 0 -0.00118944)
(-0.000108308 0 -0.00120021)
(-7.10352e-05 0 -0.00119609)
(-3.71105e-05 0 -0.00118768)
(-1.23546e-05 0 -0.00118382)
(4.65077e-06 0 -0.00118631)
(1.87817e-05 0 -0.00119312)
(3.49726e-05 0 -0.00120118)
(5.61509e-05 0 -0.00120835)
(8.27168e-05 0 -0.00121404)
(0.000113304 0 -0.00121927)
(0.000145907 0 -0.00122561)
(0.000178225 0 -0.00123477)
(0.000207415 0 -0.00124806)
(0.000230177 0 -0.00126603)
(0.000243989 0 -0.00128881)
(0.000248391 0 -0.00131615)
(0.000244057 0 -0.00134683)
(0.00023068 0 -0.00137922)
(0.000210242 0 -0.0014117)
(0.000186411 0 -0.00144184)